# p  POINT_DATA 1511
# x y z  p
0.241217 0.0945673 0 98761.8
0.241098 0.094673 0.0141891 98753.8
0.241098 0.094673 0.000410873 98753.8
0.241217 0.0945673 0.0138264 98761.8
0.241217 0.0945673 0.0146 98761.8
0.239581 0.0947927 0.0146 98764.6
0.239581 0.0947927 0.00895278 98764.6
0.239581 0.0947927 0 98764.6
0.240995 0.0945689 0 98764.2
0.240995 0.0945689 0.0146 98764.2
0.245449 0.0941236 0 98772.5
0.245126 0.094468 0.0134855 98749.4
0.245126 0.094468 0.00111455 98749.4
0.245449 0.0941236 0.0123037 98772.5
0.245449 0.0941236 0.0146 98772.5
0.241338 0.094671 0.0141824 98752.9
0.241338 0.094671 0.000417616 98752.9
0.244846 0.0941866 0 98773.1
0.244846 0.0941866 0.0146 98773.1
0.249681 0.0931445 0 98798.3
0.248722 0.0938282 0.0112896 98749.5
0.248722 0.0938282 0.0033104 98749.5
0.249681 0.0931445 0.00894312 98798.3
0.249681 0.0931445 0.0146 98798.3
0.24598 0.0942592 0.012769 98749.6
0.24598 0.0942592 0.00183097 98749.6
0.248343 0.0934473 0 98795.4
0.248343 0.0934473 0.0146 98795.4
0.253913 0.0926914 0 98803.8
0.253913 0.0926914 0.00738829 98803.8
0.251808 0.0925473 0.00731197 98752.9
0.253913 0.0926914 0.0146 98803.8
0.25202 0.0928901 0 98805.3
0.25202 0.0928901 0.0146 98805.3
0.258145 0.0930538 0 98795.5
0.256047 0.0928717 0.00732114 98745.8
0.258145 0.0930538 0.00863202 98795.5
0.258145 0.0930538 0.0146 98795.5
0.256264 0.0929023 0 98798.9
0.256264 0.0929023 0.0146 98798.9
0.262377 0.0935285 0 98788.1
0.260349 0.0936331 0.00740141 98751.3
0.262377 0.0935285 0.0102612 98788.1
0.262377 0.0935285 0.0146 98788.1
0.260978 0.0933869 0 98789
0.260978 0.0933869 0.0146 98789
0.266609 0.093946 0 98782.5
0.265974 0.0941547 0.0124102 98758.6
0.265974 0.0941547 0.00218984 98758.6
0.266609 0.093946 0.011694 98782.5
0.266609 0.093946 0.0146 98782.5
0.263216 0.0939491 0.0117048 98755.8
0.263216 0.0939491 0.0028952 98755.8
0.265694 0.0938734 0 98782.5
0.265694 0.0938734 0.0146 98782.5
0.270841 0.0946862 0 98769.1
0.270763 0.0947151 0.0143338 98766.1
0.270763 0.0947151 0.000266195 98766.1
0.270841 0.0946862 0.0142346 98769.1
0.270841 0.0946862 0.0146 98769.1
0.267125 0.0942737 0.0128188 98761.6
0.267125 0.0942737 0.00178119 98761.6
0.270721 0.0946723 0 98769.1
0.270721 0.0946723 0.0146 98769.1
0.270894 0.0947388 0.014415 98766.6
0.270894 0.0947388 0.000184984 98766.6
0.27118 0.0947927 0.0146 98766.8
0.27118 0.0947927 0.0011719 98766.8
0.27118 0.0947927 0 98766.8
0.228522 0.0980854 0 98774.4
0.228023 0.098545 0.0128784 98752.4
0.228023 0.098545 0.00172163 98752.4
0.228522 0.0980854 0.0113009 98774.4
0.228522 0.0980854 0.0146 98774.4
0.225459 0.0990467 0.0146 98767.6
0.225459 0.0990467 0.00403301 98767.6
0.225459 0.0990467 0 98767.6
0.227684 0.0982042 0 98781.7
0.227684 0.0982042 0.0146 98781.7
0.232754 0.096748 0 98788.7
0.2315 0.0977869 0.0073 98743.9
0.232754 0.096748 0.00671073 98788.7
0.232754 0.096748 0.0146 98788.7
0.229334 0.0982299 0.0117967 98747.1
0.229334 0.0982299 0.00280333 98747.1
0.23104 0.0973244 0 98791.5
0.23104 0.0973244 0.0146 98791.5
0.236986 0.095167 0 98779.8
0.236986 0.095167 0.00128477 98779.8
0.236661 0.0951185 0.0011182 98777.2
0.236661 0.0951185 0.0134818 98777.2
0.236986 0.095167 0.0146 98779.8
0.234201 0.0962473 0 98798.5
0.233798 0.0958423 0.00360223 98785.8
0.233798 0.0958423 0.0109978 98785.8
0.234201 0.0962473 0.0146 98798.5
0.237313 0.0951222 0 98780.2
0.237151 0.0949592 0.000571547 98780.3
0.237313 0.0951222 0.0146 98780.2
0.237151 0.0949592 0.0140285 98780.3
0.275072 0.0959076 0 98769.4
0.275072 0.0959076 0.00382645 98769.4
0.274489 0.0953789 0.00201175 98768.9
0.274489 0.0953789 0.0125883 98768.9
0.275072 0.0959076 0.0146 98769.4
0.279304 0.097312 0 98764.7
0.279304 0.097312 0.00864637 98764.7
0.277001 0.0962348 0.00708446 98756
0.279304 0.097312 0.0146 98764.7
0.276716 0.0964446 0 98765.4
0.276716 0.0964446 0.0146 98765.4
0.280261 0.0980854 0.0113007 98746.4
0.280261 0.0980854 0.00329933 98746.4
0.283185 0.0990467 0.0146 98748.9
0.283185 0.0990467 0.0133871 98748.9
0.283185 0.0990467 0 98748.9
0.215826 0.10293 0 98771
0.215644 0.103118 0.0139714 98765.9
0.215644 0.103118 0.000628557 98765.9
0.215826 0.10293 0.0133285 98771
0.215826 0.10293 0.0146 98771
0.215088 0.103301 0.0146 98767.8
0.215088 0.103301 0.0120545 98767.8
0.215088 0.103301 0 98767.8
0.215503 0.102976 0 98774.7
0.215503 0.102976 0.0146 98774.7
0.220058 0.101315 0 98778.4
0.21903 0.102267 0.0110539 98749.1
0.21903 0.102267 0.00354615 98749.1
0.220058 0.101315 0.00778542 98778.4
0.220058 0.101315 0.0146 98778.4
0.216124 0.103001 0.0135715 98760.6
0.216124 0.103001 0.00102853 98760.6
0.218557 0.101792 0 98788.4
0.218557 0.101792 0.0146 98788.4
0.22429 0.0994476 0 98771.8
0.22429 0.0994476 0.00137599 98771.8
0.223832 0.0995069 0.00157935 98767.9
0.223832 0.0995069 0.0130206 98767.9
0.22429 0.0994476 0.0146 98771.8
0.221698 0.100695 0 98787.7
0.221384 0.10038 0.0073 98770.3
0.221698 0.100695 0.0146 98787.7
0.224625 0.0993838 0 98772.3
0.224459 0.0992165 0.000582794 98772.3
0.224625 0.0993838 0.0146 98772.3
0.224459 0.0992165 0.0140172 98772.3
0.283536 0.0992225 0 98749.1
0.283536 0.0992225 0.000603303 98749.1
0.283454 0.099129 0.000282468 98749.1
0.283454 0.099129 0.0143175 98749.1
0.283536 0.0992225 0.0146 98749.1
0.287768 0.101167 0 98749.2
0.287768 0.101167 0.00727791 98749.2
0.286665 0.100156 0.0073 98749
0.287768 0.101167 0.0146 98749.2
0.283827 0.0993394 0 98748.8
0.283695 0.0992061 0.000547016 98748.8
0.283695 0.0992061 0.014053 98748.8
0.283827 0.0993394 0.0146 98748.8
0.288958 0.102105 0.0073 98740.4
0.291915 0.103215 0.0143058 98741.6
0.291915 0.103215 0.000294215 98741.6
0.292 0.103222 0 98742.1
0.292 0.103222 0.0143303 98742.1
0.292 0.103222 0.0146 98742.1
0.291865 0.103165 0 98742.2
0.291865 0.103165 0.0146 98742.2
0.207362 0.106956 0 98770.8
0.207077 0.107268 0.0136157 98763.9
0.207077 0.107268 0.000984318 98763.9
0.207362 0.106956 0.0125447 98770.8
0.207362 0.106956 0.0146 98770.8
0.2063 0.107555 0.0146 98766.4
0.2063 0.107555 0.0109352 98766.4
0.2063 0.107555 0 98766.4
0.206862 0.107052 0 98776.2
0.206862 0.107052 0.0146 98776.2
0.211594 0.104964 0 98775.8
0.210201 0.106154 0.0073 98748.7
0.211594 0.104964 0.00570939 98775.8
0.211594 0.104964 0.0146 98775.8
0.20799 0.106923 0.0124334 98756.3
0.20799 0.106923 0.00216656 98756.3
0.209782 0.105733 0 98787.6
0.209782 0.105733 0.0146 98787.6
0.21283 0.104543 0 98780.2
0.212375 0.104085 0.00269265 98776.2
0.21283 0.104543 0.0146 98780.2
0.212375 0.104085 0.0119074 98776.2
0.198899 0.111502 0 98765.2
0.198757 0.111667 0.0141132 98762.2
0.198757 0.111667 0.000486768 98762.2
0.198899 0.111502 0.0135491 98765.2
0.198899 0.111502 0.0146 98765.2
0.198414 0.111809 0.0146 98763.2
0.198414 0.111809 0.0129285 98763.2
0.198414 0.111809 0 98763.2
0.198643 0.111551 0 98768.1
0.198643 0.111551 0.0146 98768.1
0.20313 0.109255 0 98771.8
0.201806 0.110477 0.0073 98748.9
0.20313 0.109255 0.00583594 98771.8
0.20313 0.109255 0.0146 98771.8
0.199224 0.111481 0.0134758 98758.3
0.199224 0.111481 0.00112424 98758.3
0.201368 0.110037 0 98784
0.201368 0.110037 0.0146 98784
0.204382 0.108813 0 98775.8
0.203924 0.108352 0.00273811 98772.1
0.204382 0.108813 0.0146 98775.8
0.203924 0.108352 0.0118619 98772.1
0.194667 0.113949 0 98769.2
0.193656 0.115046 0.0111127 98751.5
0.193656 0.115046 0.00348735 98751.5
0.194667 0.113949 0.00734541 98769.2
0.194667 0.113949 0.0146 98769.2
0.19124 0.116063 0.0146 98760.6
0.19124 0.116063 0.00277959 98760.6
0.19124 0.116063 0 98760.6
0.193176 0.114564 0 98780.6
0.193176 0.114564 0.0146 98780.6
0.19618 0.11333 0 98774.5
0.195745 0.112892 0.0073 98767.3
0.19618 0.11333 0.0146 98774.5
0.186203 0.118985 0 98765.5
0.185575 0.119686 0.012435 98755.1
0.185575 0.119686 0.00216501 98755.1
0.186203 0.118985 0.0100299 98765.5
0.186203 0.118985 0.0146 98765.5
0.184038 0.120317 0.0146 98760.4
0.184038 0.120317 0.00713113 98760.4
0.184038 0.120317 0 98760.4
0.18518 0.119288 0 98774.6
0.18518 0.119288 0.0146 98774.6
0.190435 0.116606 0 98761.3
0.190435 0.116606 0.00186632 98761.3
0.188669 0.117565 0.00770288 98752.4
0.190435 0.116606 0.0146 98761.3
0.188143 0.118013 0 98774.1
0.188143 0.118013 0.0146 98774.1
0.190865 0.116495 0 98761.8
0.190656 0.116285 0.000761745 98761.8
0.190865 0.116495 0.0146 98761.8
0.190656 0.116285 0.0138383 98761.8
0.177739 0.124292 0 98758.5
0.17762 0.124451 0.0141901 98756.4
0.17762 0.124451 0.000409895 98756.4
0.177739 0.124292 0.0136445 98758.5
0.177739 0.124292 0.0146 98758.5
0.177354 0.124571 0.0146 98757.3
0.177354 0.124571 0.0132724 98757.3
0.177354 0.124571 0 98757.3
0.177515 0.124345 0 98760.7
0.177515 0.124345 0.0146 98760.7
0.181971 0.121611 0 98762.6
0.180375 0.122966 0.0073 98746.4
0.181971 0.121611 0.00444321 98762.6
0.181971 0.121611 0.0146 98762.6
0.178178 0.12413 0.0130871 98753.2
0.178178 0.12413 0.00151289 98753.2
0.180062 0.122651 0 98774.8
0.180062 0.122651 0.0146 98774.8
0.182942 0.121292 0 98764.4
0.18253 0.120879 0.00193004 98763.4
0.182942 0.121292 0.0146 98764.4
0.18253 0.120879 0.01267 98763.4
0.173507 0.127057 0 98761.8
0.172691 0.128004 0.0117848 98751.1
0.172691 0.128004 0.00281522 98751.1
0.173507 0.127057 0.00853255 98761.8
0.173507 0.127057 0.0146 98761.8
0.170859 0.128825 0.0146 98756.6
0.170859 0.128825 0.00546321 98756.6
0.170859 0.128825 0 98756.6
0.172234 0.127544 0 98771.4
0.172234 0.127544 0.0146 98771.4
0.175181 0.126253 0 98767.1
0.174798 0.125868 0.0073 98758.6
0.175181 0.126253 0.0146 98767.1
0.165043 0.132661 0 98755.7
0.164867 0.132901 0.0139904 98753.1
0.164867 0.132901 0.000609606 98753.1
0.165043 0.132661 0.0131685 98755.7
0.165043 0.132661 0.0146 98755.7
0.16448 0.133078 0.0146 98754.3
0.16448 0.133078 0.0126548 98754.3
0.16448 0.133078 0 98754.3
0.164713 0.132746 0 98758.7
0.164713 0.132746 0.0146 98758.7
0.169275 0.129919 0 98757.6
0.167525 0.131319 0.0073 98744.1
0.169275 0.129919 0.00375787 98757.6
0.169275 0.129919 0.0146 98757.6
0.16583 0.132288 0.0118882 98748.6
0.16583 0.132288 0.00271181 98748.6
0.167293 0.131085 0 98768.7
0.167293 0.131085 0.0146 98768.7
0.170104 0.129657 0 98758.7
0.16974 0.129291 0.00160146 98758.3
0.170104 0.129657 0.0146 98758.7
0.16974 0.129291 0.0129985 98758.3
0.160812 0.135546 0 98758
0.160001 0.136518 0.0118042 98749.1
0.160001 0.136518 0.00279582 98749.1
0.160812 0.135546 0.00846988 98758
0.160812 0.135546 0.0146 98758
0.15821 0.137332 0.0146 98753.7
0.15821 0.137332 0.00562548 98753.7
0.15821 0.137332 0 98753.7
0.159539 0.136053 0 98766.5
0.159539 0.136053 0.0146 98766.5
0.16246 0.134735 0 98762.5
0.162051 0.134324 0.0073 98756
0.16246 0.134735 0.0146 98762.5
0.152348 0.141175 0 98752.9
0.152172 0.14141 0.0139945 98750.7
0.152172 0.14141 0.000605524 98750.7
0.152348 0.141175 0.0131886 98752.9
0.152348 0.141175 0.0146 98752.9
0.151778 0.141586 0.0146 98751.7
0.151778 0.141586 0.0126346 98751.7
0.151778 0.141586 0 98751.7
0.15202 0.141257 0 98755.4
0.15202 0.141257 0.0146 98755.4
0.15658 0.13848 0 98754.5
0.154872 0.139869 0.0073 98742.9
0.15658 0.13848 0.00393713 98754.5
0.15658 0.13848 0.0146 98754.5
0.15307 0.14086 0.0121083 98747
0.15307 0.14086 0.00249173 98747
0.154617 0.139614 0 98763.8
0.154617 0.139614 0.0146 98763.8
0.157445 0.138202 0 98755.5
0.157071 0.137827 0.00169588 98755.1
0.157445 0.138202 0.0146 98755.5
0.157071 0.137827 0.0129041 98755.1
0.148116 0.143979 0 98755.3
0.147252 0.144972 0.0116208 98747.5
0.147252 0.144972 0.00297917 98747.5
0.148116 0.143979 0.00821289 98755.3
0.148116 0.143979 0.0146 98755.3
0.145221 0.14584 0.0146 98751.7
0.145221 0.14584 0.00461196 98751.7
0.145221 0.14584 0 98751.7
0.146788 0.144506 0 98762.4
0.146788 0.144506 0.0146 98762.4
0.149738 0.143217 0 98758.7
0.149329 0.142805 0.0073 98753.5
0.149738 0.143217 0.0146 98758.7
0.139652 0.149138 0 98753.6
0.139223 0.149663 0.0131191 98749.3
0.139223 0.149663 0.00148088 98749.3
0.139652 0.149138 0.0113159 98753.6
0.139652 0.149138 0.0146 98753.6
0.138119 0.150094 0.0146 98751.4
0.138119 0.150094 0.00931065 98751.4
0.138119 0.150094 0 98751.4
0.138906 0.149344 0 98757.6
0.138906 0.149344 0.0146 98757.6
0.143884 0.146738 0 98752.3
0.14173 0.148039 0.00725579 98742.9
0.143884 0.146738 0.00308116 98752.3
0.143884 0.146738 0.0146 98752.3
0.141758 0.147957 0 98759.8
0.141758 0.147957 0.0146 98759.8
0.144581 0.146541 0 98752.9
0.144273 0.146231 0.00134045 98752.7
0.144581 0.146541 0.0146 98752.9
0.144273 0.146231 0.0132596 98752.7
0.131188 0.153837 0 98752.2
0.130954 0.154113 0.0137907 98749.9
0.130954 0.154113 0.000809314 98749.9
0.131188 0.153837 0.0128448 98752.2
0.131188 0.153837 0.0146 98752.2
0.130289 0.154348 0.0146 98750.8
0.130289 0.154348 0.0114962 98750.8
0.130289 0.154348 0 98750.8
0.130768 0.153926 0 98754.2
0.130768 0.153926 0.0146 98754.2
0.13542 0.151698 0 98753.3
0.133945 0.152865 0.0073 98744.7
0.13542 0.151698 0.00550344 98753.3
0.13542 0.151698 0.0146 98753.3
0.131807 0.153726 0.0124644 98747.5
0.131807 0.153726 0.00213556 98747.5
0.133591 0.152509 0 98759.4
0.133591 0.152509 0.0146 98759.4
0.136619 0.151299 0 98754.6
0.136192 0.15087 0.00266163 98753.3
0.136619 0.151299 0.0146 98754.6
0.136192 0.15087 0.0119384 98753.3
0.122725 0.157929 0 98752.6
0.122403 0.158279 0.0134892 98749.6
0.122403 0.158279 0.00111085 98749.6
0.122725 0.157929 0.012288 98752.6
0.122725 0.157929 0.0146 98752.6
0.121329 0.158602 0.0146 98750.9
0.121329 0.158602 0.00978598 98750.9
0.121329 0.158602 0 98750.9
0.122168 0.158043 0 98754.8
0.122168 0.158043 0.0146 98754.8
0.126957 0.156086 0 98753.3
0.125495 0.157133 0.0073 98745.1
0.126957 0.156086 0.00596367 98753.3
0.126957 0.156086 0.0146 98753.3
0.123488 0.157835 0.0119677 98747.1
0.123488 0.157835 0.00263229 98747.1
0.125149 0.156785 0 98758.3
0.125149 0.156785 0.0146 98758.3
0.12826 0.155659 0 98754.7
0.127855 0.155251 0.0030988 98752.9
0.12826 0.155659 0.0146 98754.7
0.127855 0.155251 0.0115012 98752.9
0.114261 0.161501 0 98753.8
0.113558 0.16215 0.0121763 98748.3
0.113558 0.16215 0.00242369 98748.3
0.114261 0.161501 0.00994862 98753.8
0.114261 0.161501 0.0146 98753.8
0.110831 0.162856 0.0146 98750.9
0.110831 0.162856 0.00276775 98750.9
0.110831 0.162856 0 98750.9
0.113173 0.161763 0 98756.7
0.113173 0.161763 0.0146 98756.7
0.118493 0.159913 0 98752.8
0.116368 0.160755 0.00728932 98744.8
0.118493 0.159913 0.00449722 98752.8
0.118493 0.159913 0.0146 98752.8
0.116372 0.160724 0 98757
0.116372 0.160724 0.0146 98757
0.119523 0.159638 0 98753.6
0.119163 0.159276 0.00231135 98752.7
0.119523 0.159638 0.0146 98753.6
0.119163 0.159276 0.0122887 98752.7
0.101565 0.166021 0 98753.5
0.100986 0.166528 0.0126026 98748.9
0.100986 0.166528 0.00199736 98748.9
0.101565 0.166021 0.0108623 98753.5
0.101565 0.166021 0.0146 98753.5
0.0982694 0.16711 0.0146 98751
0.0982694 0.16711 0.00322956 98751
0.0982694 0.16711 0 98751
0.100652 0.166193 0 98755.5
0.100652 0.166193 0.0146 98755.5
0.105797 0.164704 0 98753.8
0.103489 0.165718 0.00707852 98746.2
0.105797 0.164704 0.00634224 98753.8
0.105797 0.164704 0.0146 98753.8
0.103941 0.165245 0 98756.8
0.103941 0.165245 0.0146 98756.8
0.110029 0.163201 0 98751.4
0.110029 0.163201 0.0011814 98751.4
0.109711 0.163176 0.00109566 98750.9
0.109711 0.163176 0.0135043 98750.9
0.110029 0.163201 0.0146 98751.4
0.107253 0.164319 0 98755
0.106882 0.163947 0.0073 98752.6
0.107253 0.164319 0.0146 98755
0.110322 0.163151 0 98751.4
0.110195 0.163023 0.000571379 98751.4
0.110322 0.163151 0.0146 98751.4
0.110195 0.163023 0.0140286 98751.4
0.0846377 0.17088 0 98752.5
0.0843825 0.171108 0.0137196 98750.2
0.0843825 0.171108 0.000880371 98750.2
0.0846377 0.17088 0.0129369 98752.5
0.0846377 0.17088 0.0146 98752.5
0.082844 0.171364 0.0146 98751.1
0.082844 0.171364 0.00841186 98751.1
0.082844 0.171364 0 98751.1
0.0842093 0.170934 0 98753.2
0.0842093 0.170934 0.0146 98753.2
0.0888696 0.169797 0 98754
0.0879482 0.170438 0.0114211 98747.8
0.0879482 0.170438 0.00317887 98747.8
0.0888696 0.169797 0.00921927 98754
0.0888696 0.169797 0.0146 98754
0.0850208 0.170979 0.0132782 98749.3
0.0850208 0.170979 0.00132176 98749.3
0.0875593 0.170047 0 98756
0.0875593 0.170047 0.0146 98756
0.0931014 0.168695 0 98753.7
0.0909701 0.169299 0.00728227 98745.9
0.0931014 0.168695 0.00543852 98753.7
0.0931014 0.168695 0.0146 98753.7
0.0909995 0.169251 0 98756.1
0.0909995 0.169251 0.0146 98756.1
0.0973333 0.167443 0 98751.5
0.0973333 0.167443 0.00114059 98751.5
0.0970556 0.167389 0.00095821 98751.2
0.0970556 0.167389 0.0136418 98751.2
0.0973333 0.167443 0.0146 98751.5
0.0944019 0.168418 0 98754.5
0.0940359 0.16805 0.003224 98752.9
0.0940359 0.16805 0.011376 98752.9
0.0944019 0.168418 0.0146 98754.5
0.0976202 0.167399 0 98751.6
0.0974996 0.167277 0.000573449 98751.5
0.0976202 0.167399 0.0146 98751.6
0.0974996 0.167277 0.0140266 98751.5
0.0634783 0.175471 0 98751.7
0.0633996 0.175539 0.0143287 98750.9
0.0633996 0.175539 0.000271316 98750.9
0.0634783 0.175471 0.0140935 98751.7
0.0634783 0.175471 0.0146 98751.7
0.0627333 0.175618 0.0146 98751.2
0.0627333 0.175618 0.0120298 98751.2
0.0627333 0.175618 0 98751.2
0.0633431 0.175482 0 98751.8
0.0633431 0.175482 0.0146 98751.8
0.0677101 0.174651 0 98753.5
0.0671517 0.175057 0.0126733 98749.2
0.0671517 0.175057 0.00192667 98749.2
0.0677101 0.174651 0.0112819 98753.5
0.0677101 0.174651 0.0146 98753.5
0.0635797 0.175516 0.01425 98750.7
0.0635797 0.175516 0.000349976 98750.7
0.0668478 0.174751 0 98754.5
0.0668478 0.174751 0.0146 98754.5
0.071942 0.173838 0 98754.2
0.0707927 0.174463 0.0073 98747.4
0.071942 0.173838 0.00849129 98754.2
0.071942 0.173838 0.0146 98754.2
0.0685216 0.174803 0.0118005 98748.1
0.0685216 0.174803 0.00279947 98748.1
0.0704191 0.174087 0 98755.6
0.0704191 0.174087 0.0146 98755.6
0.0761739 0.17297 0 98753.9
0.0761739 0.17297 0.00550941 98753.9
0.0740875 0.173346 0.00733401 98747.4
0.0761739 0.17297 0.0146 98753.9
0.0740002 0.173433 0 98755.6
0.0740002 0.173433 0.0146 98755.6
0.0804058 0.172016 0 98752.4
0.0804058 0.172016 0.00223538 98752.4
0.079861 0.171912 0.00187955 98751.7
0.079861 0.171912 0.0127205 98751.7
0.0804058 0.172016 0.0146 98752.4
0.0775355 0.172733 0 98754.6
0.0771819 0.172378 0.00347761 98752.7
0.0771819 0.172378 0.0111224 98752.7
0.0775355 0.172733 0.0146 98754.6
0.0809732 0.171935 0 98752.5
0.080756 0.171716 0.00120803 98752.3
0.0809732 0.171935 0.0146 98752.5
0.080756 0.171716 0.013392 98752.3
0.0338551 0.179502 0 98752.3
0.0336426 0.179659 0.0138669 98750.5
0.0336426 0.179659 0.000733105 98750.5
0.0338551 0.179502 0.0133292 98752.3
0.0338551 0.179502 0.0146 98752.3
0.0300927 0.179872 0.0146 98751.1
0.0300927 0.179872 0.00161966 98751.1
0.0300927 0.179872 0 98751.1
0.0335046 0.17952 0 98752.5
0.0335046 0.17952 0.0146 98752.5
0.038087 0.179068 0 98753.2
0.0376018 0.179385 0.0129263 98749.5
0.0376018 0.179385 0.00167368 98749.5
0.038087 0.179068 0.0118394 98753.2
0.038087 0.179068 0.0146 98753.2
0.0341004 0.179626 0.0137537 98750.2
0.0341004 0.179626 0.000846346 98750.2
0.0373345 0.179116 0 98753.7
0.0373345 0.179116 0.0146 98753.7
0.0423188 0.178613 0 98753.8
0.0415068 0.179056 0.0117983 98748.4
0.0415068 0.179056 0.00280165 98748.4
0.0423188 0.178613 0.0102797 98753.8
0.0423188 0.178613 0.0146 98753.8
0.0386735 0.179283 0.0125763 98749
0.0386735 0.179283 0.00202367 98749
0.0411566 0.178704 0 98754.5
0.0411566 0.178704 0.0146 98754.5
0.0465507 0.178112 0 98754.1
0.0453202 0.178635 0.0073 98747.4
0.0465507 0.178112 0.00855912 98754.1
0.0465507 0.178112 0.0146 98754.1
0.0433644 0.178821 0.0109927 98747.6
0.0433644 0.178821 0.00360728 98747.6
0.0449672 0.17828 0 98755
0.0449672 0.17828 0.0146 98755
0.0507826 0.177551 0 98754.2
0.0486435 0.177934 0.00727341 98746.9
0.0507826 0.177551 0.0066347 98754.2
0.0507826 0.177551 0.0146 98754.2
0.0487484 0.177827 0 98755.2
0.0487484 0.177827 0.0146 98755.2
0.0550145 0.176948 0 98753.7
0.0550145 0.176948 0.00456316 98753.7
0.0529956 0.176966 0.00741164 98751
0.0550145 0.176948 0.0146 98753.7
0.0524897 0.177334 0 98754.9
0.0524897 0.177334 0.0146 98754.9
0.0592464 0.176275 0 98752.5
0.0592464 0.176275 0.00225449 98752.5
0.0587424 0.176125 0.00173862 98752
0.0587424 0.176125 0.0128614 98752
0.0592464 0.176275 0.0146 98752.5
0.0561973 0.176807 0 98754
0.0558589 0.176467 0.0029133 98752.8
0.0558589 0.176467 0.0116867 98752.8
0.0561973 0.176807 0.0146 98754
0.0598376 0.176213 0 98752.6
0.0596174 0.175991 0.00127987 98752.4
0.0598376 0.176213 0.0146 98752.6
0.0596174 0.175991 0.0133201 98752.4
0.00423188 0.181292 0 98753.3
0.00423188 0.181292 0.00487371 98753.3
0.00213276 0.181056 0.00731934 98751.2
0.00423188 0.181292 0.0146 98753.3
0 0.181381 0.0146 98753.2
0 0.181381 0.00517655 98753.2
0 0.181381 0 98753.2
0.00147394 0.181354 0 98753.2
0.00147394 0.181354 0.0146 98753.2
0.00846377 0.18114 0 98753.4
0.00846377 0.18114 0.00435239 98753.4
0.00748978 0.180851 0.00336024 98751.9
0.00748978 0.180851 0.0112398 98751.9
0.00846377 0.18114 0.0146 98753.4
0.00560289 0.18125 0 98753.4
0.00526956 0.180915 0.00357998 98751.8
0.00526956 0.180915 0.01102 98751.8
0.00560289 0.18125 0.0146 98753.4
0.0126957 0.180995 0 98753.2
0.0126957 0.180995 0.00385211 98753.2
0.0118581 0.180714 0.0028897 98752.1
0.0118581 0.180714 0.0117103 98752.1
0.0126957 0.180995 0.0146 98753.2
0.00969109 0.181106 0 98753.5
0.00936836 0.180782 0.00312085 98752.2
0.00936836 0.180782 0.0114791 98752.2
0.00969109 0.181106 0.0146 98753.5
0.0169275 0.180808 0 98752.9
0.0169275 0.180808 0.00321245 98752.9
0.016254 0.180549 0.00232377 98752.2
0.016254 0.180549 0.0122762 98752.2
0.0169275 0.180808 0.0146 98752.9
0.0137757 0.180958 0 98753.3
0.0134615 0.180642 0.00264211 98752.4
0.0134615 0.180642 0.0119579 98752.4
0.0137757 0.180958 0.0146 98753.3
0.0211594 0.180574 0 98752.5
0.0211594 0.180574 0.00240806 98752.5
0.0206749 0.180359 0.00167163 98752.1
0.0206749 0.180359 0.0129284 98752.1
0.0211594 0.180574 0.0146 98752.5
0.0178234 0.180773 0 98753
0.0175362 0.180484 0.0020998 98752.4
0.0175362 0.180484 0.0125002 98752.4
0.0178234 0.180773 0.0146 98753
0.0253913 0.180282 0 98751.9
0.0253913 0.180282 0.00140527 98751.9
0.0251215 0.180143 0.000930675 98751.8
0.0251215 0.180143 0.0136693 98751.8
0.0253913 0.180282 0.0146 98751.9
0.0218279 0.180544 0 98752.6
0.0215925 0.180308 0.00149418 98752.2
0.0215925 0.180308 0.0131058 98752.2
0.0218279 0.180544 0.0146 98752.6
0.0296232 0.17992 0 98751.2
0.0296232 0.17992 0.000164499 98751.2
0.0295931 0.179902 0.000103635 98751.2
0.0295931 0.179902 0.0144964 98751.2
0.0296232 0.17992 0.0146 98751.2
0.0257802 0.180263 0 98752
0.0256313 0.180113 0.000827813 98751.8
0.0256313 0.180113 0.0137722 98751.8
0.0257802 0.180263 0.0146 98752
0.0296687 0.179918 0 98751.2
0.0296499 0.179899 9.21367e-05 98751.2
0.0296687 0.179918 0.0146 98751.2
0.0296499 0.179899 0.0145079 98751.2
0.296 0.0520157 0 98772.5
0.295156 0.0497932 0.0073 98742
0.296 0.0520157 0.0137857 98772.5
0.296 0.0520157 0.0146 98772.5
0.295083 0.047999 0 98622
0.295083 0.047999 0.00790705 98622
0.295083 0.047999 0.0146 98622
0.296026 0.052197 0.0144079 98773.2
0.296076 0.0522529 0.0146 98772.5
0.296026 0.052197 0.000192106 98773.2
0.296076 0.0522529 0.000554929 98772.5
0.296076 0.0522529 0 98772.5
0.298 0.0553758 0 98757.9
0.297185 0.0539863 0.0073 98727.4
0.298 0.0553758 0.010718 98757.9
0.298 0.0553758 0.0146 98757.9
0.298217 0.0560444 0.0130125 98758.6
0.298959 0.0565069 0.0146 98754.8
0.298217 0.0560444 0.00158751 98758.6
0.298959 0.0565069 0.00700186 98754.8
0.298959 0.0565069 0 98754.8
0.3 0.0576852 0 98757.3
0.29973 0.0570807 0.0019693 98746.7
0.3 0.0576852 0.00404391 98757.3
0.29973 0.0570807 0.0126307 98746.7
0.3 0.0576852 0.0146 98757.3
0.302 0.0596932 0 98754.1
0.301112 0.0583952 0.00648066 98737.4
0.302 0.0596932 0.0109356 98754.1
0.301112 0.0583952 0.00811934 98737.4
0.302 0.0596932 0.0146 98754.1
0.300753 0.0581079 0.00549464 98738.3
0.301069 0.0587807 0 98751.1
0.300753 0.0581079 0.00910536 98738.3
0.301069 0.0587807 0.0146 98751.1
0.302209 0.0603152 0.0130703 98754.5
0.302977 0.0607609 0.0146 98750.9
0.302209 0.0603152 0.00152969 98754.5
0.302977 0.0607609 0.00713634 98750.9
0.302977 0.0607609 0 98750.9
0.304 0.0618345 0 98751.6
0.303751 0.0612896 0.00181454 98745.2
0.304 0.0618345 0.00368474 98751.6
0.303751 0.0612896 0.0127855 98745.2
0.304 0.0618345 0.0146 98751.6
0.306 0.063755 0 98749.6
0.305197 0.0624685 0.00586074 98737.8
0.306 0.063755 0.010276 98749.6
0.305197 0.0624685 0.00873926 98737.8
0.306 0.063755 0.0146 98749.6
0.304599 0.0620364 0.00437779 98739.3
0.304933 0.0627453 0 98747.5
0.304599 0.0620364 0.0102222 98739.3
0.304933 0.0627453 0.0146 98747.5
0.306253 0.0644762 0.0127512 98750.1
0.307169 0.0650149 0.0146 98746.9
0.306253 0.0644762 0.00184876 98750.1
0.307169 0.0650149 0.0085376 98746.9
0.307169 0.0650149 0 98746.9
0.308 0.0658994 0 98747.2
0.307797 0.0654449 0.00147581 98743.8
0.308 0.0658994 0.00303576 98747.2
0.307797 0.0654449 0.0131242 98743.8
0.308 0.0658994 0.0146 98747.2
0.31 0.0678672 0 98745.8
0.309278 0.0665505 0.0073 98738.1
0.31 0.0678672 0.00978934 98745.8
0.31 0.0678672 0.0146 98745.8
0.308447 0.0659668 0.00326718 98740
0.308776 0.0666668 0 98744.7
0.308447 0.0659668 0.0113328 98740
0.308776 0.0666668 0.0146 98744.7
0.310282 0.0686678 0.0125371 98746
0.311253 0.0692688 0.0146 98744.1
0.310282 0.0686678 0.00206286 98746
0.311253 0.0692688 0.00914772 98744.1
0.311253 0.0692688 0 98744.1
0.312 0.0701059 0 98744.7
0.311811 0.0696702 0.00137738 98742.4
0.312 0.0701059 0.00287297 98744.7
0.311811 0.0696702 0.0132226 98742.4
0.312 0.0701059 0.0146 98744.7
0.314 0.0721553 0 98744.5
0.313275 0.0708099 0.0073 98738.8
0.314 0.0721553 0.00990664 98744.5
0.314 0.0721553 0.0146 98744.5
0.312431 0.0701874 0.00315259 98740.1
0.312757 0.0708806 0 98743.4
0.312431 0.0701874 0.0114474 98740.1
0.312757 0.0708806 0.0146 98743.4
0.314269 0.0729497 0.0126331 98744.5
0.314884 0.0735228 0.0146 98744.8
0.314269 0.0729497 0.00196691 98744.5
0.314884 0.0735228 0.00645952 98744.8
0.314884 0.0735228 0 98744.8
0.315999 0.0754029 0 98745.9
0.315677 0.0742098 0.00235765 98743.9
0.315999 0.0754029 0.00645272 98745.9
0.315677 0.0742098 0.0122424 98743.9
0.315999 0.0754029 0.0146 98745.9
0.292016 0.103267 0.014485 98741.7
0.292016 0.103267 0.000114992 98741.7
0.292098 0.103301 0.0146 98741.8
0.292098 0.103301 0.000715004 98741.8
0.292098 0.103301 0 98741.8
0.294 0.104618 0 98743
0.294 0.104618 0.00452084 98743
0.293648 0.10405 0.00257056 98742.9
0.293648 0.10405 0.0120294 98742.9
0.294 0.104618 0.0146 98743
0.296 0.105564 0 98743.1
0.296 0.105564 0.00776852 98743.1
0.294943 0.104741 0.00716024 98741.3
0.296 0.105564 0.0146 98743.1
0.294802 0.105007 0 98742.6
0.294802 0.105007 0.0146 98742.6
0.298 0.107 0 98740.9
0.297707 0.106931 0.0124605 98739.9
0.297707 0.106931 0.00213955 98739.9
0.298 0.107 0.0126968 98740.9
0.298 0.107 0.0146 98740.9
0.296615 0.106247 0.0073 98740.1
0.297628 0.106764 0 98741.1
0.297628 0.106764 0.0146 98741.1
0.298116 0.107307 0.0137488 98739.8
0.298116 0.107307 0.000851221 98739.8
0.298701 0.107555 0.0146 98739.8
0.298701 0.107555 0.00512044 98739.8
0.298701 0.107555 0 98739.8
0.3 0.10852 0 98739.6
0.3 0.10852 0.00331424 98739.6
0.299766 0.108051 0.00170482 98739.6
0.299766 0.108051 0.0128952 98739.6
0.3 0.10852 0.0146 98739.6
0.302 0.1099 0 98738.9
0.302 0.1099 0.00804823 98738.9
0.301352 0.108932 0.0073 98739.1
0.302 0.1099 0.0146 98738.9
0.300672 0.108984 0 98739.4
0.300431 0.108472 0.00314684 98739.4
0.300431 0.108472 0.0114532 98739.4
0.300672 0.108984 0.0146 98739.4
0.304 0.111755 0 98737.4
0.303976 0.111758 0.0144255 98737.4
0.303976 0.111758 0.000174536 98737.4
0.304 0.111755 0.0144174 98737.4
0.304 0.111755 0.0146 98737.4
0.302496 0.110754 0.0109796 98737.9
0.302496 0.110754 0.00362036 98737.9
0.30396 0.111724 0 98737.4
0.30396 0.111724 0.0146 98737.4
0.304011 0.111786 0.0145212 98737.4
0.304011 0.111786 7.87588e-05 98737.4
0.304059 0.111809 0.0146 98737.4
0.304059 0.111809 0.000434397 98737.4
0.304059 0.111809 0 98737.4
0.306 0.113329 0 98737.1
0.306 0.113329 0.00521884 98737.1
0.305621 0.112614 0.00276323 98737.1
0.305621 0.112614 0.0118368 98737.1
0.306 0.113329 0.0146 98737.1
0.308 0.115069 0 98736.4
0.307009 0.113978 0.00732315 98738.2
0.308 0.115069 0.0111906 98736.4
0.308 0.115069 0.0146 98736.4
0.307238 0.114443 0 98736.8
0.307238 0.114443 0.0146 98736.8
0.308202 0.115633 0.0131257 98736.4
0.308202 0.115633 0.00147428 98736.4
0.308986 0.116063 0.0146 98735.9
0.308986 0.116063 0.00720361 98735.9
0.308986 0.116063 0 98735.9
0.31 0.117051 0 98735.5
0.31 0.117051 0.00339296 98735.5
0.309773 0.116545 0.00165588 98735.4
0.309773 0.116545 0.0129441 98735.4
0.31 0.117051 0.0146 98735.5
0.312 0.119075 0 98734.4
0.312 0.119075 0.0103386 98734.4
0.31088 0.11744 0.00700821 98736.5
0.312 0.119075 0.0146 98734.4
0.310901 0.11798 0 98735.4
0.310901 0.11798 0.0146 98735.4
0.312242 0.119801 0.0128306 98734.7
0.312242 0.119801 0.00176944 98734.7
0.312893 0.120317 0.0146 98733.6
0.312893 0.120317 0.00652457 98733.6
0.312893 0.120317 0 98733.6
0.314 0.121821 0 98732.6
0.314 0.121821 0.00516439 98732.6
0.313688 0.120979 0.00227447 98732.7
0.313688 0.120979 0.0123255 98732.7
0.314 0.121821 0.0146 98732.6
0.314714 0.123051 0.0073 98733.5
0.315571 0.124571 0.0146 98726
0.315571 0.124571 0.0114751 98726
0.315571 0.124571 0 98726
0.315999 0.125644 0 98725.3
0.315999 0.125644 0.0036827 98725.3
0.315852 0.124884 0.00107719 98725.4
0.315852 0.124884 0.0135228 98725.4
0.315999 0.125644 0.0146 98725.3
0.31566 0.205396 0.0146 98722.8
0.315861 0.205101 0.0135869 98722.7
0.31566 0.205396 0.0121242 98722.8
0.315861 0.205101 0.00101312 98722.7
0.31566 0.205396 0 98722.8
0.315999 0.203439 0 98721.6
0.315999 0.203439 0.00788175 98721.6
0.315999 0.203439 0.0146 98721.6
0.31574 0.204843 0 98722.8
0.31574 0.204843 0.0146 98722.8
0.314801 0.207946 0.00875143 98723.8
0.314801 0.207946 0.00584857 98723.8
0.314594 0.20965 0.0146 98722.9
0.314594 0.20965 0.00433836 98722.9
0.314594 0.20965 0 98722.9
0.314937 0.20739 0.0068418 98724.7
0.31522 0.207993 0 98727.5
0.314937 0.20739 0.0077582 98724.7
0.31522 0.207993 0.0146 98727.5
0.314 0.210955 0 98721.5
0.313626 0.21311 0.00272629 98724
0.313626 0.21311 0.0118737 98724
0.314 0.210955 0.00447996 98721.5
0.314 0.210955 0.0146 98721.5
0.313109 0.213904 0.0146 98723.7