# U  POINT_DATA 1511
# x y z  U_x U_y U_z
0.241217 0.0945673 0 1.81812 0.0146274 0
0.241098 0.094673 0.0141891 1.81765 0.00832071 0
0.241098 0.094673 0.000410873 1.81765 0.00832071 0
0.241217 0.0945673 0.0138264 1.81812 0.0146274 0
0.241217 0.0945673 0.0146 1.81812 0.0146274 0
0.239581 0.0947927 0.0146 1.80014 -0.0308076 0
0.239581 0.0947927 0.00895278 1.80014 -0.0308076 0
0.239581 0.0947927 0 1.80014 -0.0308076 0
0.240995 0.0945689 0 1.81628 0.00991503 0
0.240995 0.0945689 0.0146 1.81628 0.00991503 0
0.245449 0.0941236 0 1.848 0.125281 0
0.245126 0.094468 0.0134855 1.84221 0.105905 0
0.245126 0.094468 0.00111455 1.84221 0.105905 0
0.245449 0.0941236 0.0123037 1.848 0.125281 0
0.245449 0.0941236 0.0146 1.848 0.125281 0
0.241338 0.094671 0.0141824 1.818 0.0134624 0
0.241338 0.094671 0.000417616 1.818 0.0134624 0
0.244846 0.0941866 0 1.84282 0.110151 0
0.244846 0.0941866 0.0146 1.84282 0.110151 0
0.249681 0.0931445 0 1.88438 0.271099 0
0.248722 0.0938282 0.0112896 1.86695 0.218196 0
0.248722 0.0938282 0.0033104 1.86695 0.218196 0
0.249681 0.0931445 0.00894312 1.88438 0.271099 0
0.249681 0.0931445 0.0146 1.88438 0.271099 0
0.24598 0.0942592 0.012769 1.84834 0.130445 0
0.24598 0.0942592 0.00183097 1.84834 0.130445 0
0.248343 0.0934473 0 1.87094 0.229843 0
0.248343 0.0934473 0.0146 1.87094 0.229843 0
0.253913 0.0926914 0 1.91817 0.418595 0
0.253913 0.0926914 0.00738829 1.91817 0.418595 0
0.251808 0.0925473 0.00731197 1.9055 0.339412 0
0.253913 0.0926914 0.0146 1.91817 0.418595 0
0.25202 0.0928901 0 1.90612 0.358493 0
0.25202 0.0928901 0.0146 1.90612 0.358493 0
0.258145 0.0930538 0 1.93805 0.550809 0
0.256047 0.0928717 0.00732114 1.93023 0.481298 0
0.258145 0.0930538 0.00863202 1.93805 0.550809 0
0.258145 0.0930538 0.0146 1.93805 0.550809 0
0.256264 0.0929023 0 1.93226 0.493175 0
0.256264 0.0929023 0.0146 1.93226 0.493175 0
0.262377 0.0935285 0 1.94949 0.680349 0
0.260349 0.0936331 0.00740141 1.94521 0.614124 0
0.262377 0.0935285 0.0102612 1.94949 0.680349 0
0.262377 0.0935285 0.0146 1.94949 0.680349 0
0.260978 0.0933869 0 1.94674 0.636708 0
0.260978 0.0933869 0.0146 1.94674 0.636708 0
0.266609 0.093946 0 1.95267 0.814848 0
0.265974 0.0941547 0.0124102 1.95354 0.792405 0
0.265974 0.0941547 0.00218984 1.95354 0.792405 0
0.266609 0.093946 0.011694 1.95267 0.814848 0
0.266609 0.093946 0.0146 1.95267 0.814848 0
0.263216 0.0939491 0.0117048 1.95158 0.704226 0
0.263216 0.0939491 0.0028952 1.95158 0.704226 0
0.265694 0.0938734 0 1.95225 0.785608 0
0.265694 0.0938734 0.0146 1.95225 0.785608 0
0.270841 0.0946862 0 1.9479 0.944848 0
0.270763 0.0947151 0.0143338 1.94809 0.942312 0
0.270763 0.0947151 0.000266195 1.94809 0.942312 0
0.270841 0.0946862 0.0142346 1.9479 0.944848 0
0.270841 0.0946862 0.0146 1.9479 0.944848 0
0.267125 0.0942737 0.0128188 1.9528 0.829793 0
0.267125 0.0942737 0.00178119 1.9528 0.829793 0
0.270721 0.0946723 0 1.94803 0.941138 0
0.270721 0.0946723 0.0146 1.94803 0.941138 0
0.270894 0.0947388 0.014415 1.94783 0.946336 0
0.270894 0.0947388 0.000184984 1.94783 0.946336 0
0.27118 0.0947927 0.0146 1.94729 0.954263 0
0.27118 0.0947927 0.0011719 1.94729 0.954263 0
0.27118 0.0947927 0 1.94729 0.954263 0
0.228522 0.0980854 0 1.66665 -0.31807 0
0.228023 0.098545 0.0128784 1.66048 -0.336078 0
0.228023 0.098545 0.00172163 1.66048 -0.336078 0
0.228522 0.0980854 0.0113009 1.66665 -0.31807 0
0.228522 0.0980854 0.0146 1.66665 -0.31807 0
0.225459 0.0990467 0.0146 1.6211 -0.38658 0
0.225459 0.0990467 0.00403301 1.6211 -0.38658 0
0.225459 0.0990467 0 1.6211 -0.38658 0
0.227684 0.0982042 0 1.65765 -0.330798 0
0.227684 0.0982042 0.0146 1.65765 -0.330798 0
0.232754 0.096748 0 1.7105 -0.217513 0
0.2315 0.0977869 0.0073 1.6841 -0.271675 0
0.232754 0.096748 0.00671073 1.7105 -0.217513 0
0.232754 0.096748 0.0146 1.7105 -0.217513 0
0.229334 0.0982299 0.0117967 1.66733 -0.318591 0
0.229334 0.0982299 0.00280333 1.66733 -0.318591 0
0.23104 0.0973244 0 1.69059 -0.249173 0
0.23104 0.0973244 0.0146 1.69059 -0.249173 0
0.236986 0.095167 0 1.76746 -0.0965457 0
0.236986 0.095167 0.00128477 1.76746 -0.0965457 0
0.236661 0.0951185 0.0011182 1.76119 -0.115021 0
0.236661 0.0951185 0.0134818 1.76119 -0.115021 0
0.236986 0.095167 0.0146 1.76746 -0.0965457 0
0.234201 0.0962473 0 1.72056 -0.158271 0
0.233798 0.0958423 0.00360223 1.71114 -0.203578 0
0.233798 0.0958423 0.0109978 1.71114 -0.203578 0
0.234201 0.0962473 0.0146 1.72056 -0.158271 0
0.237313 0.0951222 0 1.77173 -0.0879671 0
0.237151 0.0949592 0.000571547 1.77326 -0.0921249 0
0.237313 0.0951222 0.0146 1.77173 -0.0879671 0
0.237151 0.0949592 0.0140285 1.77326 -0.0921249 0
0.275072 0.0959076 0 1.94079 1.06688 0
0.275072 0.0959076 0.00382645 1.94079 1.06688 0
0.274489 0.0953789 0.00201175 1.94104 1.04766 0
0.274489 0.0953789 0.0125883 1.94104 1.04766 0
0.275072 0.0959076 0.0146 1.94079 1.06688 0
0.279304 0.097312 0 1.93003 1.17087 0
0.279304 0.097312 0.00864637 1.93003 1.17087 0
0.277001 0.0962348 0.00708446 1.93634 1.1113 0
0.279304 0.097312 0.0146 1.93003 1.17087 0
0.276716 0.0964446 0 1.93522 1.10478 0
0.276716 0.0964446 0.0146 1.93522 1.10478 0
0.280261 0.0980854 0.0113007 1.92821 1.19337 0
0.280261 0.0980854 0.00329933 1.92821 1.19337 0
0.283185 0.0990467 0.0146 1.92307 1.25681 0
0.283185 0.0990467 0.0133871 1.92307 1.25681 0
0.283185 0.0990467 0 1.92307 1.25681 0
0.215826 0.10293 0 1.48272 -0.562496 0
0.215644 0.103118 0.0139714 1.47978 -0.56722 0
0.215644 0.103118 0.000628557 1.47978 -0.56722 0
0.215826 0.10293 0.0133285 1.48272 -0.562496 0
0.215826 0.10293 0.0146 1.48272 -0.562496 0
0.215088 0.103301 0.0146 1.47258 -0.574955 0
0.215088 0.103301 0.0120545 1.47258 -0.574955 0
0.215088 0.103301 0 1.47258 -0.574955 0
0.215503 0.102976 0 1.47858 -0.565925 0
0.215503 0.102976 0.0146 1.47858 -0.565925 0
0.220058 0.101315 0 1.54167 -0.486568 0
0.21903 0.102267 0.0110539 1.52404 -0.516472 0
0.21903 0.102267 0.00354615 1.52404 -0.516472 0
0.220058 0.101315 0.00778542 1.54167 -0.486568 0
0.220058 0.101315 0.0146 1.54167 -0.486568 0
0.216124 0.103001 0.0135715 1.48572 -0.562293 0
0.216124 0.103001 0.00102853 1.48572 -0.562293 0
0.218557 0.101792 0 1.52156 -0.505615 0
0.218557 0.101792 0.0146 1.52156 -0.505615 0
0.22429 0.0994476 0 1.60072 -0.407395 0
0.22429 0.0994476 0.00137599 1.60072 -0.407395 0
0.223832 0.0995069 0.00157935 1.59459 -0.424053 0
0.223832 0.0995069 0.0130206 1.59459 -0.424053 0
0.22429 0.0994476 0.0146 1.60072 -0.407395 0
0.221698 0.100695 0 1.56023 -0.439167 0
0.221384 0.10038 0.0073 1.55827 -0.475008 0
0.221698 0.100695 0.0146 1.56023 -0.439167 0
0.224625 0.0993838 0 1.60412 -0.39971 0
0.224459 0.0992165 0.000582794 1.60487 -0.407008 0
0.224625 0.0993838 0.0146 1.60412 -0.39971 0
0.224459 0.0992165 0.0140172 1.60487 -0.407008 0
0.283536 0.0992225 0 1.92271 1.26454 0
0.283536 0.0992225 0.000603303 1.92271 1.26454 0
0.283454 0.099129 0.000282468 1.92258 1.26256 0
0.283454 0.099129 0.0143175 1.92258 1.26256 0
0.283536 0.0992225 0.0146 1.92271 1.26454 0
0.287768 0.101167 0 1.91392 1.35173 0
0.287768 0.101167 0.00727791 1.91392 1.35173 0
0.286665 0.100156 0.0073 1.91786 1.32995 0
0.287768 0.101167 0.0146 1.91392 1.35173 0
0.283827 0.0993394 0 1.92172 1.27027 0
0.283695 0.0992061 0.000547016 1.92223 1.26768 0
0.283695 0.0992061 0.014053 1.92223 1.26768 0
0.283827 0.0993394 0.0146 1.92172 1.27027 0
0.288958 0.102105 0.0073 1.91082 1.37577 0
0.291915 0.103215 0.0143058 1.90671 1.40914 0
0.291915 0.103215 0.000294215 1.90671 1.40914 0
0.292 0.103222 0 1.90667 1.40979 0
0.292 0.103222 0.0143303 1.90667 1.40979 0
0.292 0.103222 0.0146 1.90667 1.40979 0
0.291865 0.103165 0 1.90687 1.4079 0
0.291865 0.103165 0.0146 1.90687 1.4079 0
0.207362 0.106956 0 1.36275 -0.688387 0
0.207077 0.107268 0.0136157 1.35757 -0.694683 0
0.207077 0.107268 0.000984318 1.35757 -0.694683 0
0.207362 0.106956 0.0125447 1.36275 -0.688387 0
0.207362 0.106956 0.0146 1.36275 -0.688387 0
0.2063 0.107555 0.0146 1.34756 -0.703513 0
0.2063 0.107555 0.0109352 1.34756 -0.703513 0
0.2063 0.107555 0 1.34756 -0.703513 0
0.206862 0.107052 0 1.35625 -0.692618 0
0.206862 0.107052 0.0146 1.35625 -0.692618 0
0.211594 0.104964 0 1.42507 -0.621847 0
0.210201 0.106154 0.0073 1.40194 -0.654574 0
0.211594 0.104964 0.00570939 1.42507 -0.621847 0
0.211594 0.104964 0.0146 1.42507 -0.621847 0
0.20799 0.106923 0.0124334 1.37065 -0.685893 0
0.20799 0.106923 0.00216656 1.37065 -0.685893 0
0.209782 0.105733 0 1.39901 -0.641026 0
0.209782 0.105733 0.0146 1.39901 -0.641026 0
0.21283 0.104543 0 1.4373 -0.595532 0
0.212375 0.104085 0.00269265 1.43993 -0.612958 0
0.21283 0.104543 0.0146 1.4373 -0.595532 0
0.212375 0.104085 0.0119074 1.43993 -0.612958 0
0.198899 0.111502 0 1.24028 -0.796227 0
0.198757 0.111667 0.0141132 1.23754 -0.79904 0
0.198757 0.111667 0.000486768 1.23754 -0.79904 0
0.198899 0.111502 0.0135491 1.24028 -0.796227 0
0.198899 0.111502 0.0146 1.24028 -0.796227 0
0.198414 0.111809 0.0146 1.23288 -0.802235 0
0.198414 0.111809 0.0129285 1.23288 -0.802235 0
0.198414 0.111809 0 1.23288 -0.802235 0
0.198643 0.111551 0 1.23701 -0.797824 0
0.198643 0.111551 0.0146 1.23701 -0.797824 0
0.20313 0.109255 0 1.30647 -0.740236 0
0.201806 0.110477 0.0073 1.28376 -0.766371 0
0.20313 0.109255 0.00583594 1.30647 -0.740236 0
0.20313 0.109255 0.0146 1.30647 -0.740236 0
0.199224 0.111481 0.0134758 1.24434 -0.795203 0
0.199224 0.111481 0.00112424 1.24434 -0.795203 0
0.201368 0.110037 0 1.28242 -0.756121 0
0.201368 0.110037 0.0146 1.28242 -0.756121 0
0.204382 0.108813 0 1.3183 -0.718861 0
0.203924 0.108352 0.00273811 1.3191 -0.730745 0
0.204382 0.108813 0.0146 1.3183 -0.718861 0
0.203924 0.108352 0.0118619 1.3191 -0.730745 0
0.194667 0.113949 0 1.17463 -0.843045 0
0.193656 0.115046 0.0111127 1.15497 -0.860693 0
0.193656 0.115046 0.00348735 1.15497 -0.860693 0
0.194667 0.113949 0.00734541 1.17463 -0.843045 0
0.194667 0.113949 0.0146 1.17463 -0.843045 0
0.19124 0.116063 0.0146 1.12293 -0.880676 0
0.19124 0.116063 0.00277959 1.12293 -0.880676 0
0.19124 0.116063 0 1.12293 -0.880676 0
0.193176 0.114564 0 1.15243 -0.854659 0
0.193176 0.114564 0.0146 1.15243 -0.854659 0
0.19618 0.11333 0 1.19071 -0.820498 0
0.195745 0.112892 0.0073 1.19807 -0.829242 0
0.19618 0.11333 0.0146 1.19071 -0.820498 0
0.186203 0.118985 0 1.04491 -0.926879 0
0.185575 0.119686 0.012435 1.03255 -0.935787 0
0.185575 0.119686 0.00216501 1.03255 -0.935787 0
0.186203 0.118985 0.0100299 1.04491 -0.926879 0
0.186203 0.118985 0.0146 1.04491 -0.926879 0
0.184038 0.120317 0.0146 1.01337 -0.943635 0
0.184038 0.120317 0.00713113 1.01337 -0.943635 0
0.184038 0.120317 0 1.01337 -0.943635 0
0.18518 0.119288 0 1.03145 -0.930728 0
0.18518 0.119288 0.0146 1.03145 -0.930728 0
0.190435 0.116606 0 1.11031 -0.888079 0
0.190435 0.116606 0.00186632 1.11031 -0.888079 0
0.188669 0.117565 0.00770288 1.08536 -0.909552 0
0.190435 0.116606 0.0146 1.11031 -0.888079 0
0.188143 0.118013 0 1.07232 -0.90438 0
0.188143 0.118013 0.0146 1.07232 -0.90438 0
0.190865 0.116495 0 1.11377 -0.883267 0
0.190656 0.116285 0.000761745 1.11611 -0.885191 0
0.190865 0.116495 0.0146 1.11377 -0.883267 0
0.190656 0.116285 0.0138383 1.11611 -0.885191 0
0.177739 0.124292 0 0.917205 -0.990084 0
0.17762 0.124451 0.0141901 0.914606 -0.991912 0
0.17762 0.124451 0.000409895 0.914606 -0.991912 0
0.177739 0.124292 0.0136445 0.917205 -0.990084 0
0.177739 0.124292 0.0146 0.917205 -0.990084 0
0.177354 0.124571 0.0146 0.911089 -0.992915 0
0.177354 0.124571 0.0132724 0.911089 -0.992915 0
0.177354 0.124571 0 0.911089 -0.992915 0
0.177515 0.124345 0 0.914411 -0.99043 0
0.177515 0.124345 0.0146 0.914411 -0.99043 0
0.181971 0.121611 0 0.984718 -0.957804 0
0.180375 0.122966 0.0073 0.958077 -0.975261 0
0.181971 0.121611 0.00444321 0.984718 -0.957804 0
0.181971 0.121611 0.0146 0.984718 -0.957804 0
0.178178 0.12413 0.0130871 0.92358 -0.988705 0
0.178178 0.12413 0.00151289 0.92358 -0.988705 0
0.180062 0.122651 0 0.95667 -0.968194 0
0.180062 0.122651 0.0146 0.95667 -0.968194 0
0.182942 0.121292 0 0.994764 -0.950874 0
0.18253 0.120879 0.00193004 0.996489 -0.950875 0
0.182942 0.121292 0.0146 0.994764 -0.950874 0
0.18253 0.120879 0.01267 0.996489 -0.950875 0
0.173507 0.127057 0 0.852158 -1.0161 0
0.172691 0.128004 0.0117848 0.835879 -1.02492 0
0.172691 0.128004 0.00281522 0.835879 -1.02492 0
0.173507 0.127057 0.00853255 0.852158 -1.0161 0
0.173507 0.127057 0.0146 0.852158 -1.0161 0
0.170859 0.128825 0.0146 0.8132 -1.02785 0
0.170859 0.128825 0.00546321 0.8132 -1.02785 0
0.170859 0.128825 0 0.8132 -1.02785 0
0.172234 0.127544 0 0.835126 -1.0177 0
0.172234 0.127544 0.0146 0.835126 -1.0177 0
0.175181 0.126253 0 0.875571 -1.00541 0
0.174798 0.125868 0.0073 0.877335 -1.00771 0
0.175181 0.126253 0.0146 0.875571 -1.00541 0
0.165043 0.132661 0 0.729363 -1.04289 0
0.164867 0.132901 0.0139904 0.725774 -1.04448 0
0.164867 0.132901 0.000609606 0.725774 -1.04448 0
0.165043 0.132661 0.0131685 0.729363 -1.04289 0
0.165043 0.132661 0.0146 0.729363 -1.04289 0
0.16448 0.133078 0.0146 0.72128 -1.04402 0
0.16448 0.133078 0.0126548 0.72128 -1.04402 0
0.16448 0.133078 0 0.72128 -1.04402 0
0.164713 0.132746 0 0.725663 -1.04186 0
0.164713 0.132746 0.0146 0.725663 -1.04186 0
0.169275 0.129919 0 0.791683 -1.03372 0
0.167525 0.131319 0.0073 0.764415 -1.04345 0
0.169275 0.129919 0.00375787 0.791683 -1.03372 0
0.169275 0.129919 0.0146 0.791683 -1.03372 0
0.16583 0.132288 0.0118882 0.739969 -1.04408 0
0.16583 0.132288 0.00271181 0.739969 -1.04408 0
0.167293 0.131085 0 0.76456 -1.03642 0
0.167293 0.131085 0.0146 0.76456 -1.03642 0
0.170104 0.129657 0 0.802048 -1.03379 0
0.16974 0.129291 0.00160146 0.800458 -1.02986 0
0.170104 0.129657 0.0146 0.802048 -1.03379 0
0.16974 0.129291 0.0129985 0.800458 -1.02986 0
0.160812 0.135546 0 0.672545 -1.04691 0
0.160001 0.136518 0.0118042 0.658218 -1.05078 0
0.160001 0.136518 0.00279582 0.658218 -1.05078 0
0.160812 0.135546 0.00846988 0.672545 -1.04691 0
0.160812 0.135546 0.0146 0.672545 -1.04691 0
0.15821 0.137332 0.0146 0.639423 -1.04477 0
0.15821 0.137332 0.00562548 0.639423 -1.04477 0
0.15821 0.137332 0 0.639423 -1.04477 0
0.159539 0.136053 0 0.658129 -1.04207 0
0.159539 0.136053 0.0146 0.658129 -1.04207 0
0.16246 0.134735 0 0.696137 -1.04905 0
0.162051 0.134324 0.0073 0.692843 -1.04631 0
0.16246 0.134735 0.0146 0.696137 -1.04905 0
0.152348 0.141175 0 0.572601 -1.02714 0
0.152172 0.14141 0.0139945 0.569797 -1.02749 0
0.152172 0.14141 0.000605524 0.569797 -1.02749 0
0.152348 0.141175 0.0131886 0.572601 -1.02714 0
0.152348 0.141175 0.0146 0.572601 -1.02714 0
0.151778 0.141586 0.0146 0.566164 -1.02546 0
0.151778 0.141586 0.0126346 0.566164 -1.02546 0
0.151778 0.141586 0 0.566164 -1.02546 0
0.15202 0.141257 0 0.569776 -1.02484 0
0.15202 0.141257 0.0146 0.569776 -1.02484 0
0.15658 0.13848 0 0.62192 -1.04273 0
0.154872 0.139869 0.0073 0.599076 -1.04205 0
0.15658 0.13848 0.00393713 0.62192 -1.04273 0
0.15658 0.13848 0.0146 0.62192 -1.04273 0
0.15307 0.14086 0.0121083 0.579354 -1.03225 0
0.15307 0.14086 0.00249173 0.579354 -1.03225 0
0.154617 0.139614 0 0.601823 -1.03502 0
0.154617 0.139614 0.0146 0.601823 -1.03502 0
0.157445 0.138202 0 0.633764 -1.04963 0
0.157071 0.137827 0.00169588 0.627908 -1.04193 0
0.157445 0.138202 0.0146 0.633764 -1.04963 0
0.157071 0.137827 0.0129041 0.627908 -1.04193 0
0.148116 0.143979 0 0.528743 -1.01135 0
0.147252 0.144972 0.0116208 0.517218 -1.01076 0
0.147252 0.144972 0.00297917 0.517218 -1.01076 0
0.148116 0.143979 0.00821289 0.528743 -1.01135 0
0.148116 0.143979 0.0146 0.528743 -1.01135 0
0.145221 0.14584 0.0146 0.500814 -0.998613 0
0.145221 0.14584 0.00461196 0.500814 -0.998613 0
0.145221 0.14584 0 0.500814 -0.998613 0
0.146788 0.144506 0 0.51755 -1.00262 0
0.146788 0.144506 0.0146 0.51755 -1.00262 0
0.149738 0.143217 0 0.551144 -1.02314 0
0.149329 0.142805 0.0073 0.542274 -1.01644 0
0.149738 0.143217 0.0146 0.551144 -1.02314 0
0.139652 0.149138 0 0.455056 -0.966751 0
0.139223 0.149663 0.0131191 0.45016 -0.966152 0
0.139223 0.149663 0.00148088 0.45016 -0.966152 0
0.139652 0.149138 0.0113159 0.455056 -0.966751 0
0.139652 0.149138 0.0146 0.455056 -0.966751 0
0.138119 0.150094 0.0146 0.442612 -0.959807 0
0.138119 0.150094 0.00931065 0.442612 -0.959807 0
0.138119 0.150094 0 0.442612 -0.959807 0
0.138906 0.149344 0 0.450262 -0.961434 0
0.138906 0.149344 0.0146 0.450262 -0.961434 0
0.143884 0.146738 0 0.491677 -0.993448 0
0.14173 0.148039 0.00725579 0.469066 -0.982602 0
0.143884 0.146738 0.00308116 0.491677 -0.993448 0
0.143884 0.146738 0.0146 0.491677 -0.993448 0
0.141758 0.147957 0 0.478312 -0.982589 0
0.141758 0.147957 0.0146 0.478312 -0.982589 0
0.144581 0.146541 0 0.501045 -1.00227 0
0.144273 0.146231 0.00134045 0.493055 -0.993353 0
0.144581 0.146541 0.0146 0.501045 -1.00227 0
0.144273 0.146231 0.0132596 0.493055 -0.993353 0
0.131188 0.153837 0 0.397205 -0.923388 0
0.130954 0.154113 0.0137907 0.39507 -0.922965 0
0.130954 0.154113 0.000809314 0.39507 -0.922965 0
0.131188 0.153837 0.0128448 0.397205 -0.923388 0
0.131188 0.153837 0.0146 0.397205 -0.923388 0
0.130289 0.154348 0.0146 0.3912 -0.919228 0
0.130289 0.154348 0.0114962 0.3912 -0.919228 0
0.130289 0.154348 0 0.3912 -0.919228 0
0.130768 0.153926 0 0.395119 -0.920707 0
0.130768 0.153926 0.0146 0.395119 -0.920707 0
0.13542 0.151698 0 0.426059 -0.948514 0
0.133945 0.152865 0.0073 0.412874 -0.942537 0
0.13542 0.151698 0.00550344 0.426059 -0.948514 0
0.13542 0.151698 0.0146 0.426059 -0.948514 0
0.131807 0.153726 0.0124644 0.399444 -0.928108 0
0.131807 0.153726 0.00213556 0.399444 -0.928108 0
0.133591 0.152509 0 0.416586 -0.938199 0
0.133591 0.152509 0.0146 0.416586 -0.938199 0
0.136619 0.151299 0 0.440272 -0.96012 0
0.136192 0.15087 0.00266163 0.428417 -0.950201 0
0.136619 0.151299 0.0146 0.440272 -0.96012 0
0.136192 0.15087 0.0119384 0.428417 -0.950201 0
0.122725 0.157929 0 0.350716 -0.880664 0
0.122403 0.158279 0.0134892 0.348386 -0.880093 0
0.122403 0.158279 0.00111085 0.348386 -0.880093 0
0.122725 0.157929 0.012288 0.350716 -0.880664 0
0.122725 0.157929 0.0146 0.350716 -0.880664 0
0.121329 0.158602 0.0146 0.343176 -0.874963 0
0.121329 0.158602 0.00978598 0.343176 -0.874963 0
0.121329 0.158602 0 0.343176 -0.874963 0
0.122168 0.158043 0 0.34846 -0.877717 0
0.122168 0.158043 0.0146 0.34846 -0.877717 0
0.126957 0.156086 0 0.3753 -0.903284 0
0.125495 0.157133 0.0073 0.364168 -0.897597 0
0.126957 0.156086 0.00596367 0.3753 -0.903284 0
0.126957 0.156086 0.0146 0.3753 -0.903284 0
0.123488 0.157835 0.0119677 0.352705 -0.885671 0
0.123488 0.157835 0.00263229 0.352705 -0.885671 0
0.125149 0.156785 0 0.368583 -0.894263 0
0.125149 0.156785 0.0146 0.368583 -0.894263 0
0.12826 0.155659 0 0.390876 -0.9156 0
0.127855 0.155251 0.0030988 0.375192 -0.905549 0
0.12826 0.155659 0.0146 0.390876 -0.9156 0
0.127855 0.155251 0.0115012 0.375192 -0.905549 0
0.114261 0.161501 0 0.314862 -0.84358 0
0.113558 0.16215 0.0121763 0.310763 -0.842421 0
0.113558 0.16215 0.00242369 0.310763 -0.842421 0
0.114261 0.161501 0.00994862 0.314862 -0.84358 0
0.114261 0.161501 0.0146 0.314862 -0.84358 0
0.110831 0.162856 0.0146 0.298095 -0.83235 0
0.110831 0.162856 0.00276775 0.298095 -0.83235 0
0.110831 0.162856 0 0.298095 -0.83235 0
0.113173 0.161763 0 0.311271 -0.838957 0
0.113173 0.161763 0.0146 0.311271 -0.838957 0
0.118493 0.159913 0 0.337319 -0.864492 0
0.116368 0.160755 0.00728932 0.317857 -0.854148 0
0.118493 0.159913 0.00449722 0.337319 -0.864492 0
0.118493 0.159913 0.0146 0.337319 -0.864492 0
0.116372 0.160724 0 0.334362 -0.856707 0
0.116372 0.160724 0.0146 0.334362 -0.856707 0
0.119523 0.159638 0 0.350213 -0.874137 0
0.119163 0.159276 0.00231135 0.331334 -0.8645 0
0.119523 0.159638 0.0146 0.350213 -0.874137 0
0.119163 0.159276 0.0122887 0.331334 -0.8645 0
0.101565 0.166021 0 0.267278 -0.802096 0
0.100986 0.166528 0.0126026 0.264498 -0.801633 0
0.100986 0.166528 0.00199736 0.264498 -0.801633 0
0.101565 0.166021 0.0108623 0.267278 -0.802096 0
0.101565 0.166021 0.0146 0.267278 -0.802096 0
0.0982694 0.16711 0.0146 0.253976 -0.793875 0
0.0982694 0.16711 0.00322956 0.253976 -0.793875 0
0.0982694 0.16711 0 0.253976 -0.793875 0
0.100652 0.166193 0 0.264595 -0.799205 0
0.100652 0.166193 0.0146 0.264595 -0.799205 0
0.105797 0.164704 0 0.288779 -0.816551 0
0.103489 0.165718 0.00707852 0.273434 -0.809843 0
0.105797 0.164704 0.00634224 0.288779 -0.816551 0
0.105797 0.164704 0.0146 0.288779 -0.816551 0
0.103941 0.165245 0 0.285638 -0.810911 0
0.103941 0.165245 0.0146 0.285638 -0.810911 0
0.110029 0.163201 0 0.299235 -0.831439 0
0.110029 0.163201 0.0011814 0.299235 -0.831439 0
0.109711 0.163176 0.00109566 0.292677 -0.828376 0
0.109711 0.163176 0.0135043 0.292677 -0.828376 0
0.110029 0.163201 0.0146 0.299235 -0.831439 0
0.107253 0.164319 0 0.306434 -0.827699 0
0.106882 0.163947 0.0073 0.282188 -0.818199 0
0.107253 0.164319 0.0146 0.306434 -0.827699 0
0.110322 0.163151 0 0.303148 -0.83379 0
0.110195 0.163023 0.000571379 0.294697 -0.830073 0
0.110322 0.163151 0.0146 0.303148 -0.83379 0
0.110195 0.163023 0.0140286 0.294697 -0.830073 0
0.0846377 0.17088 0 0.212008 -0.762183 0
0.0843825 0.171108 0.0137196 0.210984 -0.762218 0
0.0843825 0.171108 0.000880371 0.210984 -0.762218 0
0.0846377 0.17088 0.0129369 0.212008 -0.762183 0
0.0846377 0.17088 0.0146 0.212008 -0.762183 0
0.082844 0.171364 0.0146 0.206366 -0.758989 0
0.082844 0.171364 0.00841186 0.206366 -0.758989 0
0.082844 0.171364 0 0.206366 -0.758989 0
0.0842093 0.170934 0 0.210828 -0.761201 0
0.0842093 0.170934 0.0146 0.210828 -0.761201 0
0.0888696 0.169797 0 0.229574 -0.770659 0
0.0879482 0.170438 0.0114211 0.225414 -0.770149 0
0.0879482 0.170438 0.00317887 0.225414 -0.770149 0
0.0888696 0.169797 0.00921927 0.229574 -0.770659 0
0.0888696 0.169797 0.0146 0.229574 -0.770659 0
0.0850208 0.170979 0.0132782 0.212714 -0.76367 0
0.0850208 0.170979 0.00132176 0.212714 -0.76367 0
0.0875593 0.170047 0 0.226325 -0.76755 0
0.0875593 0.170047 0.0146 0.226325 -0.76755 0
0.0931014 0.168695 0 0.250528 -0.782691 0
0.0909701 0.169299 0.00728227 0.229813 -0.776743 0
0.0931014 0.168695 0.00543852 0.250528 -0.782691 0
0.0931014 0.168695 0.0146 0.250528 -0.782691 0
0.0909995 0.169251 0 0.249187 -0.778312 0
0.0909995 0.169251 0.0146 0.249187 -0.778312 0
0.0973333 0.167443 0 0.256514 -0.793055 0
0.0973333 0.167443 0.00114059 0.256514 -0.793055 0
0.0970556 0.167389 0.00095821 0.249106 -0.790535 0
0.0970556 0.167389 0.0136418 0.249106 -0.790535 0
0.0973333 0.167443 0.0146 0.256514 -0.793055 0
0.0944019 0.168418 0 0.266171 -0.79036 0
0.0940359 0.16805 0.003224 0.239372 -0.782405 0
0.0940359 0.16805 0.011376 0.239372 -0.782405 0
0.0944019 0.168418 0.0146 0.266171 -0.79036 0
0.0976202 0.167399 0 0.25994 -0.794955 0
0.0974996 0.167277 0.000573449 0.250718 -0.791683 0
0.0976202 0.167399 0.0146 0.25994 -0.794955 0
0.0974996 0.167277 0.0140266 0.250718 -0.791683 0
0.0634783 0.175471 0 0.153232 -0.727558 0
0.0633996 0.175539 0.0143287 0.152966 -0.727624 0
0.0633996 0.175539 0.000271316 0.152966 -0.727624 0
0.0634783 0.175471 0.0140935 0.153232 -0.727558 0
0.0634783 0.175471 0.0146 0.153232 -0.727558 0
0.0627333 0.175618 0.0146 0.151216 -0.726703 0
0.0627333 0.175618 0.0120298 0.151216 -0.726703 0
0.0627333 0.175618 0 0.151216 -0.726703 0
0.0633431 0.175482 0 0.152888 -0.727352 0
0.0633431 0.175482 0.0146 0.152888 -0.727352 0
0.0677101 0.174651 0 0.165388 -0.733063 0
0.0671517 0.175057 0.0126733 0.163459 -0.733254 0
0.0671517 0.175057 0.00192667 0.163459 -0.733254 0
0.0677101 0.174651 0.0112819 0.165388 -0.733063 0
0.0677101 0.174651 0.0146 0.165388 -0.733063 0
0.0635797 0.175516 0.01425 0.15342 -0.727902 0
0.0635797 0.175516 0.000349976 0.15342 -0.727902 0
0.0668478 0.174751 0 0.163178 -0.73167 0
0.0668478 0.174751 0.0146 0.163178 -0.73167 0
0.071942 0.173838 0 0.180709 -0.739546 0
0.0707927 0.174463 0.0073 0.175898 -0.739249 0
0.071942 0.173838 0.00849129 0.180709 -0.739546 0
0.071942 0.173838 0.0146 0.180709 -0.739546 0
0.0685216 0.174803 0.0118005 0.166867 -0.735441 0
0.0685216 0.174803 0.00279947 0.166867 -0.735441 0
0.0704191 0.174087 0 0.177181 -0.737012 0
0.0704191 0.174087 0.0146 0.177181 -0.737012 0
0.0761739 0.17297 0 0.198767 -0.748166 0
0.0761739 0.17297 0.00550941 0.198767 -0.748166 0
0.0740875 0.173346 0.00733401 0.180766 -0.743785 0
0.0761739 0.17297 0.0146 0.198767 -0.748166 0
0.0740002 0.173433 0 0.19632 -0.744898 0
0.0740002 0.173433 0.0146 0.19632 -0.744898 0
0.0804058 0.172016 0 0.208805 -0.756261 0
0.0804058 0.172016 0.00223538 0.208805 -0.756261 0
0.079861 0.171912 0.00187955 0.197223 -0.752981 0
0.079861 0.171912 0.0127205 0.197223 -0.752981 0
0.0804058 0.172016 0.0146 0.208805 -0.756261 0
0.0775355 0.172733 0 0.21177 -0.753254 0
0.0771819 0.172378 0.00347761 0.189664 -0.747872 0
0.0771819 0.172378 0.0111224 0.189664 -0.747872 0
0.0775355 0.172733 0.0146 0.21177 -0.753254 0
0.0809732 0.171935 0 0.214346 -0.759055 0
0.080756 0.171716 0.00120803 0.199957 -0.754558 0
0.0809732 0.171935 0.0146 0.214346 -0.759055 0
0.080756 0.171716 0.013392 0.199957 -0.754558 0
0.0338551 0.179502 0 0.0807315 -0.698294 0
0.0336426 0.179659 0.0138669 0.080161 -0.698566 0
0.0336426 0.179659 0.000733105 0.080161 -0.698566 0
0.0338551 0.179502 0.0133292 0.0807315 -0.698294 0
0.0338551 0.179502 0.0146 0.0807315 -0.698294 0
0.0300927 0.179872 0.0146 0.071985 -0.696214 0
0.0300927 0.179872 0.00161966 0.071985 -0.696214 0
0.0300927 0.179872 0 0.071985 -0.696214 0
0.0335046 0.17952 0 0.0799198 -0.698046 0
0.0335046 0.17952 0.0146 0.0799198 -0.698046 0
0.038087 0.179068 0 0.0908706 -0.701082 0
0.0376018 0.179385 0.0129263 0.0895307 -0.70156 0
0.0376018 0.179385 0.00167368 0.0895307 -0.70156 0
0.038087 0.179068 0.0118394 0.0908706 -0.701082 0
0.038087 0.179068 0.0146 0.0908706 -0.701082 0
0.0341004 0.179626 0.0137537 0.0812102 -0.698911 0
0.0341004 0.179626 0.000846346 0.0812102 -0.698911 0
0.0373345 0.179116 0 0.0891084 -0.700476 0
0.0373345 0.179116 0.0146 0.0891084 -0.700476 0
0.0423188 0.178613 0 0.101266 -0.704304 0
0.0415068 0.179056 0.0117983 0.0989463 -0.704824 0
0.0415068 0.179056 0.00280165 0.0989463 -0.704824 0
0.0423188 0.178613 0.0102797 0.101266 -0.704304 0
0.0423188 0.178613 0.0146 0.101266 -0.704304 0
0.0386735 0.179283 0.0125763 0.0920079 -0.702456 0
0.0386735 0.179283 0.00202367 0.0920079 -0.702456 0
0.0411566 0.178704 0 0.0985233 -0.703247 0
0.0411566 0.178704 0.0146 0.0985233 -0.703247 0
0.0465507 0.178112 0 0.112849 -0.70767 0
0.0453202 0.178635 0.0073 0.108859 -0.708139 0
0.0465507 0.178112 0.00855912 0.112849 -0.70767 0
0.0465507 0.178112 0.0146 0.112849 -0.70767 0
0.0433644 0.178821 0.0109927 0.103219 -0.706542 0
0.0433644 0.178821 0.00360728 0.103219 -0.706542 0
0.0449672 0.17828 0 0.109184 -0.706099 0
0.0449672 0.17828 0.0146 0.109184 -0.706099 0
0.0507826 0.177551 0 0.126387 -0.712379 0
0.0486435 0.177934 0.00727341 0.115877 -0.711357 0
0.0507826 0.177551 0.0066347 0.126387 -0.712379 0
0.0507826 0.177551 0.0146 0.126387 -0.712379 0
0.0487484 0.177827 0 0.122221 -0.710283 0
0.0487484 0.177827 0.0146 0.122221 -0.710283 0
0.0550145 0.176948 0 0.138993 -0.718068 0
0.0550145 0.176948 0.00456316 0.138993 -0.718068 0
0.0529956 0.176966 0.00741164 0.126085 -0.714883 0
0.0550145 0.176948 0.0146 0.138993 -0.718068 0
0.0524897 0.177334 0 0.135009 -0.715526 0
0.0524897 0.177334 0.0146 0.135009 -0.715526 0
0.0592464 0.176275 0 0.148027 -0.723298 0
0.0592464 0.176275 0.00225449 0.148027 -0.723298 0
0.0587424 0.176125 0.00173862 0.140657 -0.721346 0
0.0587424 0.176125 0.0128614 0.140657 -0.721346 0
0.0592464 0.176275 0.0146 0.148027 -0.723298 0
0.0561973 0.176807 0 0.145228 -0.720514 0
0.0558589 0.176467 0.0029133 0.133342 -0.717705 0
0.0558589 0.176467 0.0116867 0.133342 -0.717705 0
0.0561973 0.176807 0.0146 0.145228 -0.720514 0
0.0598376 0.176213 0 0.151531 -0.724763 0
0.0596174 0.175991 0.00127987 0.14297 -0.722358 0
0.0598376 0.176213 0.0146 0.151531 -0.724763 0
0.0596174 0.175991 0.0133201 0.14297 -0.722358 0
0.00423188 0.181292 0 0.0170058 -0.689591 0
0.00423188 0.181292 0.00487371 0.0170058 -0.689591 0
0.00213276 0.181056 0.00731934 0.00978388 -0.539347 0
0.00423188 0.181292 0.0146 0.0170058 -0.689591 0
0 0.181381 0.0146 0 0 0
0 0.181381 0.00517655 0 0 0
0 0.181381 0 0 0 0
0.00147394 0.181354 0 0.00697234 -0.242734 0
0.00147394 0.181354 0.0146 0.00697234 -0.242734 0
0.00846377 0.18114 0 0.0257401 -0.689862 0
0.00846377 0.18114 0.00435239 0.0257401 -0.689862 0
0.00748978 0.180851 0.00336024 0.0228944 -0.689728 0
0.00748978 0.180851 0.0112398 0.0228944 -0.689728 0
0.00846377 0.18114 0.0146 0.0257401 -0.689862 0
0.00560289 0.18125 0 0.0195374 -0.688939 0
0.00526956 0.180915 0.00357998 0.0180327 -0.689024 0
0.00526956 0.180915 0.01102 0.0180327 -0.689024 0
0.00560289 0.18125 0.0146 0.0195374 -0.688939 0
0.0126957 0.180995 0 0.035733 -0.690148 0
0.0126957 0.180995 0.00385211 0.035733 -0.690148 0
0.0118581 0.180714 0.0028897 0.0319651 -0.689592 0
0.0118581 0.180714 0.0117103 0.0319651 -0.689592 0
0.0126957 0.180995 0.0146 0.035733 -0.690148 0
0.00969109 0.181106 0 0.0295253 -0.690074 0
0.00936836 0.180782 0.00312085 0.0266582 -0.689488 0
0.00936836 0.180782 0.0114791 0.0266582 -0.689488 0
0.00969109 0.181106 0.0146 0.0295253 -0.690074 0
0.0169275 0.180808 0 0.0450048 -0.691016 0
0.0169275 0.180808 0.00321245 0.0450048 -0.691016 0
0.016254 0.180549 0.00232377 0.041356 -0.690218 0
0.016254 0.180549 0.0122762 0.041356 -0.690218 0
0.0169275 0.180808 0.0146 0.0450048 -0.691016 0
0.0137757 0.180958 0 0.0385612 -0.690534 0
0.0134615 0.180642 0.00264211 0.0353358 -0.689696 0
0.0134615 0.180642 0.0119579 0.0353358 -0.689696 0
0.0137757 0.180958 0.0146 0.0385612 -0.690534 0
0.0211594 0.180574 0 0.0540901 -0.692369 0
0.0211594 0.180574 0.00240806 0.0540901 -0.692369 0
0.0206749 0.180359 0.00167163 0.0509431 -0.691513 0
0.0206749 0.180359 0.0129284 0.0509431 -0.691513 0
0.0211594 0.180574 0.0146 0.0540901 -0.692369 0
0.0178234 0.180773 0 0.0474111 -0.691471 0
0.0175362 0.180484 0.0020998 0.0441015 -0.690483 0
0.0175362 0.180484 0.0125002 0.0441015 -0.690483 0
0.0178234 0.180773 0.0146 0.0474111 -0.691471 0
0.0253913 0.180282 0 0.0629184 -0.694102 0
0.0253913 0.180282 0.00140527 0.0629184 -0.694102 0
0.0251215 0.180143 0.000930675 0.0607571 -0.693422 0
0.0251215 0.180143 0.0136693 0.0607571 -0.693422 0