# p  POINT_DATA 533
# x y z  p
0.244324 0.00151062 0.00731728 99369.8
0.242851 0.00299993 0.0146 99377.8
0.242851 0.00299993 0.0037571 99377.8
0.242851 0.00299993 0 99377.8
0.244369 0 0 99386.1
0.244369 0 0.00724819 99386.1
0.244369 0 0.0146 99386.1
0.243844 0.00124122 0 99386.6
0.243844 0.00124122 0.0146 99386.6
0.241217 0.00437109 0 99376.2
0.240365 0.00559709 0.0126397 99373
0.240365 0.00559709 0.00196026 99373
0.241217 0.00437109 0.0066731 99376.2
0.241217 0.00437109 0.0146 99376.2
0.239286 0.00599987 0.0146 99375.5
0.239286 0.00599987 0.010158 99375.5
0.239286 0.00599987 0 99375.5
0.239731 0.00529753 0 99380.2
0.239731 0.00529753 0.0146 99380.2
0.242512 0.00361162 0 99378.3
0.241954 0.003348 0.00169398 99377.9
0.242512 0.00361162 0.0146 99378.3
0.241954 0.003348 0.012906 99377.9
0.23487 0.00886943 0 99371.8
0.234777 0.008956 0.0143868 99371.5
0.234777 0.008956 0.000213182 99371.5
0.23487 0.00886943 0.0139655 99371.8
0.23487 0.00886943 0.0146 99371.8
0.234626 0.0089998 0.0146 99372.1
0.234626 0.0089998 0.0140405 99372.1
0.234626 0.0089998 0 99372.1
0.234684 0.0089122 0 99372.7
0.234684 0.0089122 0.0146 99372.7
0.237774 0.00737255 0 99377.8
0.237489 0.0072377 0.0073 99370.3
0.237774 0.00737255 0.0146 99377.8
0.232358 0.010226 0.00685585 99364.8
0.229682 0.0119997 0.0146 99374.5
0.229682 0.0119997 0.00266837 99374.5
0.229682 0.0119997 0 99374.5
0.231767 0.0105333 0 99381.3
0.231767 0.0105333 0.0146 99381.3
0.228522 0.0126832 0 99374.6
0.226915 0.0142401 0.0073 99371.2
0.228522 0.0126832 0.00332616 99374.6
0.228522 0.0126832 0.0146 99374.6
0.224629 0.0149997 0.0146 99377.5
0.224629 0.0149997 0.0056472 99377.5
0.224629 0.0149997 0 99377.5
0.226094 0.0138523 0 99385
0.226094 0.0138523 0.0146 99385
0.229422 0.0124252 0 99375.1
0.229001 0.0122264 0.00110288 99375
0.229422 0.0124252 0.0146 99375.1
0.229001 0.0122264 0.0134971 99375
0.222174 0.0163287 0 99377.3
0.220917 0.0174057 0.0117095 99373.4
0.220917 0.0174057 0.00289051 99373.4
0.222174 0.0163287 0.0064681 99377.3
0.222174 0.0163287 0.0146 99377.3
0.219175 0.0179996 0.0146 99382.2
0.219175 0.0179996 0.00770318 99382.2
0.219175 0.0179996 0 99382.2
0.220133 0.017035 0 99389.4
0.220133 0.017035 0.0146 99389.4
0.223861 0.0157968 0 99378.9
0.223118 0.015446 0.00217194 99378.4
0.223861 0.0157968 0.0146 99378.9
0.223118 0.015446 0.0124281 99378.4
0.215826 0.0199625 0 99381.4
0.215097 0.0206552 0.012924 99378.9
0.215097 0.0206552 0.00167604 99378.9
0.215826 0.0199625 0.00955283 99381.4
0.215826 0.0199625 0.0146 99381.4
0.214003 0.0209995 0.0146 99385.5
0.214003 0.0209995 0.010407 99385.5
0.214003 0.0209995 0 99385.5
0.214495 0.0203704 0 99391.9
0.214495 0.0203704 0.0146 99391.9
0.218055 0.0190529 0 99385.8
0.217267 0.0186807 0.00331488 99382.7
0.218055 0.0190529 0.0146 99385.8
0.217267 0.0186807 0.0112851 99382.7
0.209478 0.0238479 0 99383.4
0.209373 0.0239496 0.0143573 99383
0.209373 0.0239496 0.00024265 99383
0.209478 0.0238479 0.0138624 99383.4
0.209478 0.0238479 0.0146 99383.4
0.209216 0.0239995 0.0146 99384.2
0.209216 0.0239995 0.0139976 99384.2
0.209216 0.0239995 0 99384.2
0.20927 0.023901 0 99385.5
0.20927 0.023901 0.0146 99385.5
0.212251 0.0223097 0 99393.6
0.211633 0.0220177 0.0073 99381
0.212251 0.0223097 0.0146 99393.6
0.206924 0.0257921 0.0073 99372.5
0.208923 0.0242618 0.00127645 99380.3
0.208923 0.0242618 0.0133235 99380.3
0.204816 0.0269994 0.0146 99389.9
0.204816 0.0269994 0.00387578 99389.9
0.204816 0.0269994 0 99389.9
0.206584 0.0256318 0 99401.6
0.206584 0.0256318 0.0146 99401.6
0.20313 0.0281128 0 99388.8
0.201864 0.0294009 0.0116877 99383.2
0.201864 0.0294009 0.00291229 99383.2
0.20313 0.0281128 0.00541857 99388.8
0.20313 0.0281128 0.0146 99388.8
0.200447 0.0299994 0.0146 99396.7
0.200447 0.0299994 0.00842905 99396.7
0.200447 0.0299994 0 99396.7
0.201169 0.0290726 0 99407.4
0.201169 0.0290726 0.0146 99407.4
0.204398 0.0275983 0 99391.5
0.203847 0.0273383 0.00164913 99390.6
0.204398 0.0275983 0.0146 99391.5
0.203847 0.0273383 0.0129509 99390.6
0.196979 0.0329066 0.0141492 99388
0.196981 0.0329993 0.0146 99388.8
0.196979 0.0329066 0.000450845 99388
0.196981 0.0329993 0.000455181 99388.8
0.196981 0.0329993 0 99388.8
0.198612 0.0308639 0.0073 99391.5
0.199318 0.0311977 0 99403.2
0.199318 0.0311977 0.0146 99403.2
0.196783 0.0331606 0 99388.5
0.195105 0.0352063 0.0073 99378.6
0.196783 0.0331606 0.000785244 99388.5
0.196783 0.0331606 0.0146 99388.5
0.193736 0.0359992 0.0146 99398.6
0.193736 0.0359992 0.00759382 99398.6
0.193736 0.0359992 0 99398.6
0.194534 0.0349366 0 99409.4
0.194534 0.0349366 0.0146 99409.4
0.196951 0.0330789 0 99388.9
0.196873 0.0330421 0.000208369 99388.8
0.196951 0.0330789 0.0146 99388.9
0.196873 0.0330421 0.0143916 99388.8
0.191024 0.0387205 0.0132437 99388.4
0.19106 0.0389992 0.0146 99391.3
0.191024 0.0387205 0.00135631 99388.4
0.19106 0.0389992 0.0014371 99391.3
0.19106 0.0389992 0 99391.3
0.192238 0.0368516 0.0073 99391.6
0.192887 0.0371583 0 99404.5
0.192887 0.0371583 0.0146 99404.5
0.190435 0.0396365 0 99389.4
0.189291 0.0414584 0.0119687 99380.8
0.189291 0.0414584 0.00263128 99380.8
0.190435 0.0396365 0.00310187 99389.4
0.190435 0.0396365 0.0146 99389.4
0.188276 0.0419991 0.0146 99397.7
0.188276 0.0419991 0.00963586 99397.7
0.188276 0.0419991 0 99397.7
0.188738 0.0411971 0 99406
0.188738 0.0411971 0.0146 99406
0.190968 0.0392512 0 99391.8
0.190736 0.0391414 0.000692057 99391.4
0.190968 0.0392512 0.0146 99391.8
0.190736 0.0391414 0.0139079 99391.4
0.186974 0.0435366 0.00736086 99365.5
0.186253 0.044999 0.0146 99395.1
0.186253 0.044999 0.00498209 99395.1
0.186253 0.044999 0 99395.1
0.187207 0.0434735 0 99406.5
0.187207 0.0434735 0.0146 99406.5
0.184087 0.0479001 0 99386.8
0.18405 0.0479815 0.0145149 99386.6
0.18405 0.0479815 8.50816e-05 99386.6
0.184087 0.0479001 0.0141189 99386.8
0.184087 0.0479001 0.0146 99386.8
0.184002 0.047999 0.0146 99387.2
0.184002 0.047999 0.014405 99387.2
0.184002 0.047999 0 99387.2
0.184014 0.0479645 0 99387.7
0.184014 0.0479645 0.0146 99387.7
0.185874 0.0458437 0 99398.3
0.185261 0.0455539 0.00270037 99393.7
0.185874 0.0458437 0.0146 99398.3
0.185261 0.0455539 0.0118996 99393.7
0.182357 0.0526413 0.0073 99374.5
0.184002 0.048084 0.000194536 99385.8
0.184002 0.048084 0.0144055 99385.8
0.18075 0.0543799 0.0146 99393.6
0.18075 0.0543799 0.00692465 99393.6
0.18075 0.0543799 0 99393.6
0.181726 0.052007 0 99408.8
0.181726 0.052007 0.0146 99408.8
0.177739 0.0598469 0 99383.5
0.177504 0.0605246 0.0140594 99381
0.177504 0.0605246 0.00054056 99381
0.177739 0.0598469 0.0125087 99383.5
0.177739 0.0598469 0.0146 99383.5
0.177187 0.0607609 0.0146 99384.7
0.177187 0.0607609 0.0133296 99384.7
0.177187 0.0607609 0 99384.7
0.177284 0.0603034 0 99389
0.177284 0.0603034 0.0146 99389
0.179912 0.0565642 0 99398.6
0.179178 0.0558264 0.00330955 99392.2
0.179912 0.0565642 0.0146 99398.6
0.179178 0.0558264 0.0112904 99392.2
0.175542 0.0649333 0.0073 99365.2
0.176996 0.061508 0.0017094 99375.1
0.176996 0.061508 0.0128906 99375.1
0.174111 0.0671419 0.0146 99387.1
0.174111 0.0671419 0.00625512 99387.1
0.174111 0.0671419 0 99387.1
0.175123 0.064512 0 99401.7
0.175123 0.064512 0.0146 99401.7
0.171391 0.0733051 0 99378.1
0.171343 0.0734747 0.0144899 99377.7
0.171343 0.0734747 0.000110084 99377.7
0.171391 0.0733051 0.0141019 99378.1
0.171391 0.0733051 0.0146 99378.1
0.171282 0.0735228 0.0146 99378.4
0.171282 0.0735228 0.0143482 99378.4
0.171282 0.0735228 0 99378.4
0.171298 0.0734286 0 99379.1
0.171298 0.0734286 0.0146 99379.1
0.173474 0.0692354 0 99391
0.172786 0.0685438 0.00320784 99385.7
0.173474 0.0692354 0.0146 99391
0.172786 0.0685438 0.0113922 99385.7
0.169773 0.0782774 0.0073 99367.3
0.171282 0.0736325 0.000250873 99376.9
0.171282 0.0736325 0.0143491 99376.9
0.168571 0.0799038 0.0146 99383.9
0.168571 0.0799038 0.00811265 99383.9
0.168571 0.0799038 0 99383.9
0.169239 0.0777407 0 99393.6
0.169239 0.0777407 0.0146 99393.6
0.166477 0.0848441 0.0113037 99372.5
0.166392 0.0862847 0.0146 99378.8
0.166477 0.0848441 0.00329629 99372.5
0.166392 0.0862847 0.00310093 99378.8
0.166392 0.0862847 0 99378.8
0.167233 0.0821046 0.0073 99374.7
0.167719 0.082593 0 99389
0.167719 0.082593 0.0146 99389
0.165043 0.0898605 0 99375
0.164514 0.0921337 0.0133827 99371.3
0.164514 0.0921337 0.00121731 99371.3
0.165043 0.0898605 0.00818157 99375
0.165043 0.0898605 0.0146 99375
0.163957 0.0926657 0.0146 99377.4
0.163957 0.0926657 0.012101 99377.4
0.163957 0.0926657 0 99377.4
0.164137 0.0917544 0 99381.5
0.164137 0.0917544 0.0146 99381.5
0.16618 0.0874276 0 99379.6
0.165722 0.086967 0.00156103 99378.8
0.16618 0.0874276 0.0146 99379.6
0.165722 0.086967 0.013039 99378.8
0.162989 0.0969812 0.0073 99362.6
0.163868 0.0938478 0.00270462 99366.4
0.163868 0.0938478 0.0118954 99366.4
0.161877 0.0990467 0.0146 99378.1
0.161877 0.0990467 0.00731824 99378.1
0.161877 0.0990467 0 99378.1
0.162556 0.0965465 0 99385
0.162556 0.0965465 0.0146 99385
0.160035 0.104081 0.011519 99369.9
0.160093 0.105428 0.0146 99374.1
0.160035 0.104081 0.00308105 99369.9
0.160093 0.105428 0.00321358 99374.1
0.160093 0.105428 0 99374.1
0.160699 0.101061 0.0073 99372.1
0.161223 0.101587 0 99381.2
0.161223 0.101587 0.0146 99381.2
0.158696 0.109807 0 99370.4
0.158367 0.111478 0.0138446 99368.5
0.158367 0.111478 0.000755387 99368.5
0.158696 0.109807 0.010021 99370.4
0.158696 0.109807 0.0146 99370.4
0.158019 0.111809 0.0146 99371.6
0.158019 0.111809 0.0130445 99371.6
0.158019 0.111809 0 99371.6
0.158116 0.111225 0 99373.5
0.158116 0.111225 0.0146 99373.5
0.159896 0.106634 0 99374.8
0.159429 0.106165 0.00168685 99373.9
0.159896 0.106634 0.0146 99374.8
0.159429 0.106165 0.0129131 99373.9
0.157082 0.116568 0.0073 99362.6
0.158078 0.112429 0.00141959 99366.4
0.158078 0.112429 0.0131804 99366.4
0.156017 0.11819 0.0146 99372.8
0.156017 0.11819 0.00843873 99372.8
0.156017 0.11819 0 99372.8
0.15655 0.116033 0 99377.6
0.15655 0.116033 0.0146 99377.6
0.154724 0.121561 0.00743821 99363.5
0.154311 0.124571 0.0146 99370.2
0.154311 0.124571 0.00451451 99370.2
0.154311 0.124571 0 99370.2
0.155218 0.121075 0 99375.7
0.155218 0.121075 0.0146 99375.7
0.152454 0.130845 0.0143566 99365.7
0.152498 0.130952 0.0146 99365.8
0.152454 0.130845 0.000243417 99365.7
0.152498 0.130952 0.000344566 99365.8
0.152498 0.130952 0 99365.8
0.153411 0.12564 0.00244626 99369.7
0.154005 0.126236 0 99371.1
0.154005 0.126236 0.0146 99371.1
0.153411 0.12564 0.0121537 99369.7
0.152348 0.131422 0 99365.5
0.151363 0.136343 0.0123356 99361.8
0.151363 0.136343 0.00226435 99361.8
0.152348 0.131422 0.00107683 99365.5
0.152348 0.131422 0.0146 99365.5
0.150602 0.137332 0.0146 99366.2
0.150602 0.137332 0.010585 99366.2
0.150602 0.137332 0 99366.2
0.150897 0.135874 0 99369.3
0.150897 0.135874 0.0146 99369.3
0.152484 0.131088 0 99365.8
0.152423 0.131027 0.000172726 99365.8
0.152484 0.131088 0.0146 99365.8
0.152423 0.131027 0.0144273 99365.8
0.150292 0.140292 0.00712382 99358.7
0.149142 0.143713 0.0146 99364.3
0.149142 0.143713 0.0072266 99364.3
0.149142 0.143713 0 99364.3
0.14969 0.141041 0 99368.2
0.14969 0.141041 0.0146 99368.2
0.147346 0.148741 0.0115039 99360.9
0.147189 0.150094 0.0146 99362.4
0.147346 0.148741 0.00309607 99360.9
0.147189 0.150094 0.00273373 99362.4
0.147189 0.150094 0 99362.4
0.148158 0.145883 0.0073 99361.6
0.148535 0.146262 0 99365.4
0.148535 0.146262 0.0146 99365.4
0.146 0.151739 0 99362.5
0.14462 0.155088 0.0114249 99361.7
0.14462 0.155088 0.00317512 99361.7
0.146 0.151739 0.00376255 99362.5
0.146 0.151739 0.0146 99362.5
0.140542 0.156475 0.0146 99365.2
0.140542 0.156475 0.00204745 99365.2
0.140542 0.156475 0 99365.2
0.143761 0.154224 0 99366
0.143761 0.154224 0.0146 99366
0.146981 0.15108 0 99362.6
0.146603 0.150701 0.00138725 99362.4
0.146981 0.15108 0.0146 99362.6
0.146603 0.150701 0.0132127 99362.4
0.120609 0.161885 0 99370.3
0.120079 0.162324 0.0133817 99368.5
0.120079 0.162324 0.00121829 99368.5
0.120609 0.161885 0.0123773 99370.3
0.120609 0.161885 0.0146 99370.3
0.115443 0.162856 0.0146 99370.1
0.115443 0.162856 0.00271959 99370.1
0.115443 0.162856 0 99370.1
0.119727 0.161971 0 99371.2
0.119727 0.161971 0.0146 99371.2
0.126957 0.160648 0 99370.5
0.125669 0.161562 0.0116394 99367.6
0.125669 0.161562 0.00296059 99367.6
0.126957 0.160648 0.00954745 99370.5
0.126957 0.160648 0.0146 99370.5
0.121317 0.162144 0.0129708 99368
0.121317 0.162144 0.00162917 99368
0.125059 0.160949 0 99372
0.125059 0.160949 0.0146 99372
0.133304 0.159138 0 99369.5
0.13001 0.160245 0.00720783 99368.7
0.133304 0.159138 0.00609325 99369.5
0.133304 0.159138 0.0146 99369.5
0.130321 0.159857 0 99371.8
0.130321 0.159857 0.0146 99371.8
0.139652 0.157043 0 99365.6
0.139652 0.157043 0.00129806 99365.6
0.139128 0.157003 0.00120672 99366.1
0.139128 0.157003 0.0133933 99366.1
0.139652 0.157043 0.0146 99365.6
0.135433 0.158615 0 99369.6
0.13491 0.158089 0.0073 99370.3
0.135433 0.158615 0.0146 99369.6
0.140136 0.156962 0 99365.5
0.139918 0.156743 0.000612535 99365.5
0.140136 0.156962 0.0146 99365.5
0.139918 0.156743 0.0139875 99365.5
0.0761739 0.168534 0 99374.2
0.0757788 0.16884 0.0136914 99372.2
0.0757788 0.16884 0.000908649 99372.2
0.0761739 0.168534 0.0129914 99374.2
0.0761739 0.168534 0.0146 99374.2
0.0702391 0.169237 0.0146 99373.2
0.0702391 0.169237 0.000949882 99373.2
0.0702391 0.169237 0 99373.2
0.0755146 0.168575 0 99374.6
0.0755146 0.168575 0.0146 99374.6
0.0825217 0.167785 0 99374.9
0.0816554 0.168366 0.0126073 99371.2
0.0816554 0.168366 0.00199265 99371.2
0.0825217 0.167785 0.0112772 99374.9
0.0825217 0.167785 0.0146 99374.9
0.0766426 0.168766 0.0135221 99371.9
0.0766426 0.168766 0.00107788 99371.9
0.0811787 0.167887 0 99375.6
0.0811787 0.167887 0.0146 99375.6
0.0888696 0.166991 0 99375.7
0.0874338 0.167794 0.0112977 99370.6
0.0874338 0.167794 0.00330228 99370.6
0.0888696 0.166991 0.00945944 99375.7
0.0888696 0.166991 0.0146 99375.7
0.0836105 0.168143 0.0120958 99370.7
0.0836105 0.168143 0.00250423 99370.7
0.0868514 0.167209 0 99376.4
0.0868514 0.167209 0.0146 99376.4
0.0952174 0.16611 0 99376.2
0.0919374 0.166949 0.00721865 99371.2
0.0952174 0.16611 0.00744554 99376.2
0.0952174 0.16611 0.0146 99376.2
0.0924835 0.166489 0 99377.1
0.0924835 0.166489 0.0146 99377.1
0.101565 0.165181 0 99375.2
0.101565 0.165181 0.00531991 99375.2
0.0984856 0.16534 0.00737233 99373.9
0.101565 0.165181 0.0146 99375.2
0.0980594 0.165713 0 99376.9
0.0980594 0.165713 0.0146 99376.9
0.107913 0.164197 0 99372.9
0.107913 0.164197 0.00306812 99372.9
0.106838 0.163937 0.00247307 99372.9
0.106838 0.163937 0.0121269 99372.9
0.107913 0.164197 0.0146 99372.9
0.103613 0.164915 0 99375.4
0.103083 0.164383 0.00349199 99374.8
0.103083 0.164383 0.011108 99374.8
0.103613 0.164915 0.0146 99375.4
0.114261 0.163092 0 99370.4
0.114261 0.163092 0.000538751 99370.4
0.114103 0.163015 0.000363387 99370.5
0.114103 0.163015 0.0142366 99370.5
0.114261 0.163092 0.0146 99370.4
0.10911 0.16406 0 99372.9
0.108679 0.163626 0.00176076 99372.9
0.108679 0.163626 0.0128392 99372.9
0.10911 0.16406 0.0146 99372.9
0.114475 0.163071 0 99370.4
0.114383 0.162979 0.000280591 99370.4
0.114475 0.163071 0.0146 99370.4
0.114383 0.162979 0.0143194 99370.4
0.00634783 0.17293 0 99378
0.00316753 0.173365 0.0072951 99372.1
0.00634783 0.17293 0.00844877 99378
0.00634783 0.17293 0.0146 99378
0 0.172981 0.0146 99377.9
0 0.172981 0.00856695 99377.9
0 0.172981 0 99377.9
0.00369485 0.172951 0 99378
0.00369485 0.172951 0.0146 99378
0.0126957 0.172816 0 99378.2
0.00950945 0.173216 0.00729058 99372.3
0.0126957 0.172816 0.00818726 99378.2
0.0126957 0.172816 0.0146 99378.2
0.00995657 0.172865 0 99378.2
0.00995657 0.172865 0.0146 99378.2
0.0190435 0.172662 0 99378.3
0.0158568 0.173016 0.00729025 99372.4
0.0190435 0.172662 0.00783615 99378.3
0.0190435 0.172662 0.0146 99378.3
0.0161717 0.172732 0 99378.4
0.0161717 0.172732 0.0146 99378.4
0.0253913 0.172452 0 99378.4
0.0222088 0.172702 0.00729345 99372.7
0.0253913 0.172452 0.00735453 99378.4
0.0253913 0.172452 0.0146 99378.4
0.0223419 0.172553 0 99378.6
0.0223419 0.172553 0.0146 99378.6
0.0317391 0.172186 0 99378.3
0.0317391 0.172186 0.00674691 99378.3
0.0285729 0.172242 0.00730586 99373.6
0.0317391 0.172186 0.0146 99378.3
0.0284637 0.172326 0 99378.7
0.0284637 0.172326 0.0146 99378.7
0.038087 0.171865 0 99378
0.038087 0.171865 0.00601138 99378
0.0349448 0.171746 0.00732434 99375.1
0.038087 0.171865 0.0146 99378
0.0345376 0.17205 0 99378.6
0.0345376 0.17205 0.0146 99378.6
0.0444348 0.171487 0 99377.4
0.0444348 0.171487 0.00514829 99377.4
0.0413208 0.171245 0.00734596 99375.9
0.0444348 0.171487 0.0146 99377.4
0.0405654 0.171729 0 99378.2
0.0405654 0.171729 0.0146 99378.2
0.0507826 0.171052 0 99376.6
0.0507826 0.171052 0.00415298 99376.6
0.0493451 0.170682 0.00330637 99375.8
0.0493451 0.170682 0.0112936 99375.8
0.0507826 0.171052 0.0146 99376.6
0.0465477 0.171361 0 99377.5
0.0460522 0.170863 0.0073 99376.4
0.0465477 0.171361 0.0146 99377.5
0.0571304 0.170552 0 99375.6
0.0571304 0.170552 0.00300902 99375.6
0.056174 0.170199 0.00219973 99375.3
0.056174 0.170199 0.0124003 99375.3
0.0571304 0.170552 0.0146 99375.6
0.052482 0.170946 0 99376.7
0.0519819 0.170443 0.00275839 99376.1
0.0519819 0.170443 0.0118416 99376.1
0.052482 0.170946 0.0146 99376.7
0.0634783 0.169974 0 99374.5
0.0634783 0.169974 0.00168529 99374.5
0.0629835 0.169735 0.00113788 99374.4
0.0629835 0.169735 0.0134621 99374.4
0.0634783 0.169974 0.0146 99374.5
0.0583607 0.170474 0 99375.6
0.0579361 0.170047 0.00185303 99375.4
0.0579361 0.170047 0.012747 99375.4
0.0583607 0.170474 0.0146 99375.6
0.0698261 0.169289 0 99373.3
0.0698261 0.169289 0.00011776 99373.3
0.069794 0.16927 7.37643e-05 99373.3
0.069794 0.16927 0.0145262 99373.3
0.0698261 0.169289 0.0146 99373.3
0.0641677 0.16993 0 99374.5
0.0638993 0.169661 0.000968473 99374.4
0.0638993 0.169661 0.0136315 99374.4
0.0641677 0.16993 0.0146 99374.5
0.0698744 0.169286 0 99373.3
0.0698537 0.169265 6.36155e-05 99373.3
0.0698744 0.169286 0.0146 99373.3
0.0698537 0.169265 0.0145364 99373.3
