# U  POINT_DATA 533
# x y z  U_x U_y U_z
0.244324 0.00151062 0.00731728 1.53006 -0.0121809 0
0.242851 0.00299993 0.0146 1.58586 -0.00274625 0
0.242851 0.00299993 0.0037571 1.58586 -0.00274625 0
0.242851 0.00299993 0 1.58586 -0.00274625 0
0.244369 0 0 0 0 0
0.244369 0 0.00724819 0 0 0
0.244369 0 0.0146 0 0 0
0.243844 0.00124122 0 0.664865 0.0185987 0
0.243844 0.00124122 0.0146 0.664865 0.0185987 0
0.241217 0.00437109 0 1.64121 -0.00939997 0
0.240365 0.00559709 0.0126397 1.68495 -0.00259467 0
0.240365 0.00559709 0.00196026 1.68495 -0.00259467 0
0.241217 0.00437109 0.0066731 1.64121 -0.00939997 0
0.241217 0.00437109 0.0146 1.64121 -0.00939997 0
0.239286 0.00599987 0.0146 1.67895 -0.00387771 0
0.239286 0.00599987 0.010158 1.67895 -0.00387771 0
0.239286 0.00599987 0 1.67895 -0.00387771 0
0.239731 0.00529753 0 1.67824 -0.000243299 0
0.239731 0.00529753 0.0146 1.67824 -0.000243299 0
0.242512 0.00361162 0 1.59423 0.0125574 0
0.241954 0.003348 0.00169398 1.59518 -0.0246982 0
0.242512 0.00361162 0.0146 1.59423 0.0125574 0
0.241954 0.003348 0.012906 1.59518 -0.0246982 0
0.23487 0.00886943 0 1.64583 -0.0578648 0
0.234777 0.008956 0.0143868 1.64631 -0.0585423 0
0.234777 0.008956 0.000213182 1.64631 -0.0585423 0
0.23487 0.00886943 0.0139655 1.64583 -0.0578648 0
0.23487 0.00886943 0.0146 1.64583 -0.0578648 0
0.234626 0.0089998 0.0146 1.64591 -0.0582319 0
0.234626 0.0089998 0.0140405 1.64591 -0.0582319 0
0.234626 0.0089998 0 1.64591 -0.0582319 0
0.234684 0.0089122 0 1.64614 -0.0583049 0
0.234684 0.0089122 0.0146 1.64614 -0.0583049 0
0.237774 0.00737255 0 1.64415 0.00340125 0
0.237489 0.0072377 0.0073 1.60491 -0.0237624 0
0.237774 0.00737255 0.0146 1.64415 0.00340125 0
0.232358 0.010226 0.00685585 1.62107 -0.0322307 0
0.229682 0.0119997 0.0146 1.6227 -0.0493714 0
0.229682 0.0119997 0.00266837 1.6227 -0.0493714 0
0.229682 0.0119997 0 1.6227 -0.0493714 0
0.231767 0.0105333 0 1.62265 -0.0406796 0
0.231767 0.0105333 0.0146 1.62265 -0.0406796 0
0.228522 0.0126832 0 1.61961 -0.0479935 0
0.226915 0.0142401 0.0073 1.60972 -0.0473539 0
0.228522 0.0126832 0.00332616 1.61961 -0.0479935 0
0.228522 0.0126832 0.0146 1.61961 -0.0479935 0
0.224629 0.0149997 0.0146 1.60451 -0.051701 0
0.224629 0.0149997 0.0056472 1.60451 -0.051701 0
0.224629 0.0149997 0 1.60451 -0.051701 0
0.226094 0.0138523 0 1.61135 -0.0450983 0
0.226094 0.0138523 0.0146 1.61135 -0.0450983 0
0.229422 0.0124252 0 1.60523 -0.0364068 0
0.229001 0.0122264 0.00110288 1.62464 -0.0542291 0
0.229422 0.0124252 0.0146 1.60523 -0.0364068 0
0.229001 0.0122264 0.0134971 1.62464 -0.0542291 0
0.222174 0.0163287 0 1.61649 -0.0514299 0
0.220917 0.0174057 0.0117095 1.62055 -0.0567348 0
0.220917 0.0174057 0.00289051 1.62055 -0.0567348 0
0.222174 0.0163287 0.0064681 1.61649 -0.0514299 0
0.222174 0.0163287 0.0146 1.61649 -0.0514299 0
0.219175 0.0179996 0.0146 1.60817 -0.0663749 0
0.219175 0.0179996 0.00770318 1.60817 -0.0663749 0
0.219175 0.0179996 0 1.60817 -0.0663749 0
0.220133 0.017035 0 1.62179 -0.0537878 0
0.220133 0.017035 0.0146 1.62179 -0.0537878 0
0.223861 0.0157968 0 1.60107 -0.0345135 0
0.223118 0.015446 0.00217194 1.59793 -0.0522151 0
0.223861 0.0157968 0.0146 1.60107 -0.0345135 0
0.223118 0.015446 0.0124281 1.59793 -0.0522151 0
0.215826 0.0199625 0 1.60742 -0.0997607 0
0.215097 0.0206552 0.012924 1.61197 -0.106724 0
0.215097 0.0206552 0.00167604 1.61197 -0.106724 0
0.215826 0.0199625 0.00955283 1.60742 -0.0997607 0
0.215826 0.0199625 0.0146 1.60742 -0.0997607 0
0.214003 0.0209995 0.0146 1.60064 -0.114575 0
0.214003 0.0209995 0.010407 1.60064 -0.114575 0
0.214003 0.0209995 0 1.60064 -0.114575 0
0.214495 0.0203704 0 1.61022 -0.10636 0
0.214495 0.0203704 0.0146 1.61022 -0.10636 0
0.218055 0.0190529 0 1.60732 -0.0626969 0
0.217267 0.0186807 0.00331488 1.56805 -0.0881442 0
0.218055 0.0190529 0.0146 1.60732 -0.0626969 0
0.217267 0.0186807 0.0112851 1.56805 -0.0881442 0
0.209478 0.0238479 0 1.55325 -0.180903 0
0.209373 0.0239496 0.0143573 1.55299 -0.182678 0
0.209373 0.0239496 0.00024265 1.55299 -0.182678 0
0.209478 0.0238479 0.0138624 1.55325 -0.180903 0
0.209478 0.0238479 0.0146 1.55325 -0.180903 0
0.209216 0.0239995 0.0146 1.55132 -0.18394 0
0.209216 0.0239995 0.0139976 1.55132 -0.18394 0
0.209216 0.0239995 0 1.55132 -0.18394 0
0.20927 0.023901 0 1.55243 -0.182671 0
0.20927 0.023901 0.0146 1.55243 -0.182671 0
0.212251 0.0223097 0 1.57901 -0.126651 0
0.211633 0.0220177 0.0073 1.53478 -0.136737 0
0.212251 0.0223097 0.0146 1.57901 -0.126651 0
0.206924 0.0257921 0.0073 1.50098 -0.198033 0
0.208923 0.0242618 0.00127645 1.5422 -0.186233 0
0.208923 0.0242618 0.0133235 1.5422 -0.186233 0
0.204816 0.0269994 0.0146 1.49224 -0.226474 0
0.204816 0.0269994 0.00387578 1.49224 -0.226474 0
0.204816 0.0269994 0 1.49224 -0.226474 0
0.206584 0.0256318 0 1.52801 -0.193798 0
0.206584 0.0256318 0.0146 1.52801 -0.193798 0
0.20313 0.0281128 0 1.48343 -0.24667 0
0.201864 0.0294009 0.0116877 1.48107 -0.265804 0
0.201864 0.0294009 0.00291229 1.48107 -0.265804 0
0.20313 0.0281128 0.00541857 1.48343 -0.24667 0
0.20313 0.0281128 0.0146 1.48343 -0.24667 0
0.200447 0.0299994 0.0146 1.46451 -0.282627 0
0.200447 0.0299994 0.00842905 1.46451 -0.282627 0
0.200447 0.0299994 0 1.46451 -0.282627 0
0.201169 0.0290726 0 1.48516 -0.262507 0
0.201169 0.0290726 0.0146 1.48516 -0.262507 0
0.204398 0.0275983 0 1.48321 -0.217964 0
0.203847 0.0273383 0.00164913 1.4704 -0.241461 0
0.204398 0.0275983 0.0146 1.48321 -0.217964 0
0.203847 0.0273383 0.0129509 1.4704 -0.241461 0
0.196979 0.0329066 0.0141492 1.38194 -0.370014 0
0.196981 0.0329993 0.0146 1.38428 -0.369477 0
0.196979 0.0329066 0.000450845 1.38194 -0.370014 0
0.196981 0.0329993 0.000455181 1.38428 -0.369477 0
0.196981 0.0329993 0 1.38428 -0.369477 0
0.198612 0.0308639 0.0073 1.39819 -0.320856 0
0.199318 0.0311977 0 1.435 -0.293446 0
0.199318 0.0311977 0.0146 1.435 -0.293446 0
0.196783 0.0331606 0 1.38206 -0.373732 0
0.195105 0.0352063 0.0073 1.36501 -0.39499 0
0.196783 0.0331606 0.000785244 1.38206 -0.373732 0
0.196783 0.0331606 0.0146 1.38206 -0.373732 0
0.193736 0.0359992 0.0146 1.35038 -0.41083 0
0.193736 0.0359992 0.00759382 1.35038 -0.41083 0
0.193736 0.0359992 0 1.35038 -0.41083 0
0.194534 0.0349366 0 1.37577 -0.387347 0
0.194534 0.0349366 0.0146 1.37577 -0.387347 0
0.196951 0.0330789 0 1.38146 -0.368691 0
0.196873 0.0330421 0.000208369 1.38209 -0.374088 0
0.196951 0.0330789 0.0146 1.38146 -0.368691 0
0.196873 0.0330421 0.0143916 1.38209 -0.374088 0
0.191024 0.0387205 0.0132437 1.26787 -0.483897 0
0.19106 0.0389992 0.0146 1.2721 -0.477615 0
0.191024 0.0387205 0.00135631 1.26787 -0.483897 0
0.19106 0.0389992 0.0014371 1.2721 -0.477615 0
0.19106 0.0389992 0 1.2721 -0.477615 0
0.192238 0.0368516 0.0073 1.29179 -0.448658 0
0.192887 0.0371583 0 1.31848 -0.409157 0
0.192887 0.0371583 0.0146 1.31848 -0.409157 0
0.190435 0.0396365 0 1.26343 -0.494564 0
0.189291 0.0414584 0.0119687 1.24973 -0.512048 0
0.189291 0.0414584 0.00263128 1.24973 -0.512048 0
0.190435 0.0396365 0.00310187 1.26343 -0.494564 0
0.190435 0.0396365 0.0146 1.26343 -0.494564 0
0.188276 0.0419991 0.0146 1.23644 -0.520876 0
0.188276 0.0419991 0.00963586 1.23644 -0.520876 0
0.188276 0.0419991 0 1.23644 -0.520876 0
0.188738 0.0411971 0 1.25264 -0.5068 0
0.188738 0.0411971 0.0146 1.25264 -0.5068 0
0.190968 0.0392512 0 1.26314 -0.475993 0
0.190736 0.0391414 0.000692057 1.26412 -0.492991 0
0.190968 0.0392512 0.0146 1.26314 -0.475993 0
0.190736 0.0391414 0.0139079 1.26412 -0.492991 0
0.186974 0.0435366 0.00736086 1.17298 -0.56553 0
0.186253 0.044999 0.0146 1.1757 -0.554779 0
0.186253 0.044999 0.00498209 1.1757 -0.554779 0
0.186253 0.044999 0 1.1757 -0.554779 0
0.187207 0.0434735 0 1.21111 -0.515041 0
0.187207 0.0434735 0.0146 1.21111 -0.515041 0
0.184087 0.0479001 0 1.10448 -0.628881 0
0.18405 0.0479815 0.0145149 1.1033 -0.629988 0
0.18405 0.0479815 8.50816e-05 1.1033 -0.629988 0
0.184087 0.0479001 0.0141189 1.10448 -0.628881 0
0.184087 0.0479001 0.0146 1.10448 -0.628881 0
0.184002 0.047999 0.0146 1.10274 -0.630067 0
0.184002 0.047999 0.014405 1.10274 -0.630067 0
0.184002 0.047999 0 1.10274 -0.630067 0
0.184014 0.0479645 0 1.10323 -0.629632 0
0.184014 0.0479645 0.0146 1.10323 -0.629632 0
0.185874 0.0458437 0 1.14408 -0.550535 0
0.185261 0.0455539 0.00270037 1.13858 -0.600326 0
0.185874 0.0458437 0.0146 1.14408 -0.550535 0
0.185261 0.0455539 0.0118996 1.13858 -0.600326 0
0.182357 0.0526413 0.0073 1.058 -0.631782 0
0.184002 0.048084 0.000194536 1.10206 -0.63061 0
0.184002 0.048084 0.0144055 1.10206 -0.63061 0
0.18075 0.0543799 0.0146 1.03115 -0.645897 0
0.18075 0.0543799 0.00692465 1.03115 -0.645897 0
0.18075 0.0543799 0 1.03115 -0.645897 0
0.181726 0.052007 0 1.06024 -0.617108 0
0.181726 0.052007 0.0146 1.06024 -0.617108 0
0.177739 0.0598469 0 0.947212 -0.729461 0
0.177504 0.0605246 0.0140594 0.939138 -0.736367 0
0.177504 0.0605246 0.00054056 0.939138 -0.736367 0
0.177739 0.0598469 0.0125087 0.947212 -0.729461 0
0.177739 0.0598469 0.0146 0.947212 -0.729461 0
0.177187 0.0607609 0.0146 0.934922 -0.737055 0
0.177187 0.0607609 0.0133296 0.934922 -0.737055 0
0.177187 0.0607609 0 0.934922 -0.737055 0
0.177284 0.0603034 0 0.93999 -0.732894 0
0.177284 0.0603034 0.0146 0.93999 -0.732894 0
0.179912 0.0565642 0 0.978742 -0.628808 0
0.179178 0.0558264 0.00330955 0.993924 -0.689681 0
0.179912 0.0565642 0.0146 0.978742 -0.628808 0
0.179178 0.0558264 0.0112904 0.993924 -0.689681 0
0.175542 0.0649333 0.0073 0.88105 -0.742573 0
0.176996 0.061508 0.0017094 0.924872 -0.742631 0
0.176996 0.061508 0.0128906 0.924872 -0.742631 0
0.174111 0.0671419 0.0146 0.854714 -0.746036 0
0.174111 0.0671419 0.00625512 0.854714 -0.746036 0
0.174111 0.0671419 0 0.854714 -0.746036 0
0.175123 0.064512 0 0.888772 -0.716108 0
0.175123 0.064512 0.0146 0.888772 -0.716108 0
0.171391 0.0733051 0 0.7748 -0.812033 0
0.171343 0.0734747 0.0144899 0.772919 -0.813135 0
0.171343 0.0734747 0.000110084 0.772919 -0.813135 0
0.171391 0.0733051 0.0141019 0.7748 -0.812033 0
0.171391 0.0733051 0.0146 0.7748 -0.812033 0
0.171282 0.0735228 0.0146 0.772219 -0.813097 0
0.171282 0.0735228 0.0143482 0.772219 -0.813097 0
0.171282 0.0735228 0 0.772219 -0.813097 0
0.171298 0.0734286 0 0.773184 -0.81247 0
0.171298 0.0734286 0.0146 0.773184 -0.81247 0
0.173474 0.0692354 0 0.815282 -0.714812 0
0.172786 0.0685438 0.00320784 0.827026 -0.783362 0
0.173474 0.0692354 0.0146 0.815282 -0.714812 0
0.172786 0.0685438 0.0113922 0.827026 -0.783362 0
0.169773 0.0782774 0.0073 0.718608 -0.811212 0
0.171282 0.0736325 0.000250873 0.771025 -0.813923 0
0.171282 0.0736325 0.0143491 0.771025 -0.813923 0
0.168571 0.0799038 0.0146 0.699925 -0.810339 0
0.168571 0.0799038 0.00811265 0.699925 -0.810339 0
0.168571 0.0799038 0 0.699925 -0.810339 0
0.169239 0.0777407 0 0.723805 -0.79404 0
0.169239 0.0777407 0.0146 0.723805 -0.79404 0
0.166477 0.0848441 0.0113037 0.642268 -0.857384 0
0.166392 0.0862847 0.0146 0.629711 -0.824609 0
0.166477 0.0848441 0.00329629 0.642268 -0.857384 0
0.166392 0.0862847 0.00310093 0.629711 -0.824609 0
0.166392 0.0862847 0 0.629711 -0.824609 0
0.167233 0.0821046 0.0073 0.669798 -0.846714 0
0.167719 0.082593 0 0.668702 -0.77245 0
0.167719 0.082593 0.0146 0.668702 -0.77245 0
0.165043 0.0898605 0 0.592599 -0.87213 0
0.164514 0.0921337 0.0133827 0.570174 -0.879737 0
0.164514 0.0921337 0.00121731 0.570174 -0.879737 0
0.165043 0.0898605 0.00818157 0.592599 -0.87213 0
0.165043 0.0898605 0.0146 0.592599 -0.87213 0
0.163957 0.0926657 0.0146 0.564538 -0.878273 0
0.163957 0.0926657 0.012101 0.564538 -0.878273 0
0.163957 0.0926657 0 0.564538 -0.878273 0
0.164137 0.0917544 0 0.573181 -0.874626 0
0.164137 0.0917544 0.0146 0.573181 -0.874626 0
0.16618 0.0874276 0 0.605852 -0.80659 0
0.165722 0.086967 0.00156103 0.621252 -0.86343 0
0.16618 0.0874276 0.0146 0.605852 -0.80659 0
0.165722 0.086967 0.013039 0.621252 -0.86343 0
0.162989 0.0969812 0.0073 0.519355 -0.868412 0
0.163868 0.0938478 0.00270462 0.552474 -0.884622 0
0.163868 0.0938478 0.0118954 0.552474 -0.884622 0
0.161877 0.0990467 0.0146 0.499611 -0.857046 0
0.161877 0.0990467 0.00731824 0.499611 -0.857046 0
0.161877 0.0990467 0 0.499611 -0.857046 0
0.162556 0.0965465 0 0.522966 -0.842129 0
0.162556 0.0965465 0.0146 0.522966 -0.842129 0
0.160035 0.104081 0.011519 0.453539 -0.902388 0
0.160093 0.105428 0.0146 0.440002 -0.860244 0
0.160035 0.104081 0.00308105 0.453539 -0.902388 0
0.160093 0.105428 0.00321358 0.440002 -0.860244 0
0.160093 0.105428 0 0.440002 -0.860244 0
0.160699 0.101061 0.0073 0.480528 -0.896419 0
0.161223 0.101587 0 0.473099 -0.816408 0
0.161223 0.101587 0.0146 0.473099 -0.816408 0
0.158696 0.109807 0 0.403581 -0.908538 0
0.158367 0.111478 0.0138446 0.388981 -0.911039 0
0.158367 0.111478 0.000755387 0.388981 -0.911039 0
0.158696 0.109807 0.010021 0.403581 -0.908538 0
0.158696 0.109807 0.0146 0.403581 -0.908538 0
0.158019 0.111809 0.0146 0.386271 -0.909401 0
0.158019 0.111809 0.0130445 0.386271 -0.909401 0
0.158019 0.111809 0 0.386271 -0.909401 0
0.158116 0.111225 0 0.391277 -0.908041 0
0.158116 0.111225 0.0146 0.391277 -0.908041 0
0.159896 0.106634 0 0.422984 -0.840503 0
0.159429 0.106165 0.00168685 0.435305 -0.904 0
0.159896 0.106634 0.0146 0.422984 -0.840503 0
0.159429 0.106165 0.0129131 0.435305 -0.904 0
0.157082 0.116568 0.0073 0.340196 -0.909245 0
0.158078 0.112429 0.00141959 0.38034 -0.912324 0
0.158078 0.112429 0.0131804 0.38034 -0.912324 0
0.156017 0.11819 0.0146 0.327063 -0.903149 0
0.156017 0.11819 0.00843873 0.327063 -0.903149 0
0.156017 0.11819 0 0.327063 -0.903149 0
0.15655 0.116033 0 0.345113 -0.898905 0
0.15655 0.116033 0.0146 0.345113 -0.898905 0
0.154724 0.121561 0.00743821 0.300183 -0.915526 0
0.154311 0.124571 0.0146 0.270932 -0.878218 0
0.154311 0.124571 0.00451451 0.270932 -0.878218 0
0.154311 0.124571 0 0.270932 -0.878218 0
0.155218 0.121075 0 0.297059 -0.858656 0
0.155218 0.121075 0.0146 0.297059 -0.858656 0
0.152454 0.130845 0.0143566 0.226303 -0.914549 0
0.152498 0.130952 0.0146 0.224789 -0.908636 0
0.152454 0.130845 0.000243417 0.226303 -0.914549 0
0.152498 0.130952 0.000344566 0.224789 -0.908636 0
0.152498 0.130952 0 0.224789 -0.908636 0
0.153411 0.12564 0.00244626 0.268007 -0.913145 0
0.154005 0.126236 0 0.255913 -0.847594 0
0.154005 0.126236 0.0146 0.255913 -0.847594 0
0.153411 0.12564 0.0121537 0.268007 -0.913145 0
0.152348 0.131422 0 0.221588 -0.914362 0
0.151363 0.136343 0.0123356 0.180318 -0.913952 0
0.151363 0.136343 0.00226435 0.180318 -0.913952 0
0.152348 0.131422 0.00107683 0.221588 -0.914362 0
0.152348 0.131422 0.0146 0.221588 -0.914362 0
0.150602 0.137332 0.0146 0.174588 -0.90871 0
0.150602 0.137332 0.010585 0.174588 -0.90871 0
0.150602 0.137332 0 0.174588 -0.90871 0
0.150897 0.135874 0 0.186181 -0.908018 0
0.150897 0.135874 0.0146 0.186181 -0.908018 0
0.152484 0.131088 0 0.222946 -0.906086 0
0.152423 0.131027 0.000172726 0.224928 -0.914448 0
0.152484 0.131088 0.0146 0.222946 -0.906086 0
0.152423 0.131027 0.0144273 0.224928 -0.914448 0
0.150292 0.140292 0.00712382 0.146316 -0.911193 0
0.149142 0.143713 0.0146 0.122137 -0.891654 0
0.149142 0.143713 0.0072266 0.122137 -0.891654 0
0.149142 0.143713 0 0.122137 -0.891654 0
0.14969 0.141041 0 0.141143 -0.890668 0
0.14969 0.141041 0.0146 0.141143 -0.890668 0
0.147346 0.148741 0.0115039 0.093094 -0.894498 0
0.147189 0.150094 0.0146 0.0828423 -0.862801 0
0.147346 0.148741 0.00309607 0.093094 -0.894498 0
0.147189 0.150094 0.00273373 0.0828423 -0.862801 0
0.147189 0.150094 0 0.0828423 -0.862801 0
0.148158 0.145883 0.0073 0.108349 -0.902995 0
0.148535 0.146262 0 0.0998675 -0.842849 0
0.148535 0.146262 0.0146 0.0998675 -0.842849 0
0.146 0.151739 0 0.0818537 -0.880752 0
0.14462 0.155088 0.0114249 0.0684528 -0.867102 0
0.14462 0.155088 0.00317512 0.0684528 -0.867102 0
0.146 0.151739 0.00376255 0.0818537 -0.880752 0
0.146 0.151739 0.0146 0.0818537 -0.880752 0
0.140542 0.156475 0.0146 0.0664249 -0.83498 0
0.140542 0.156475 0.00204745 0.0664249 -0.83498 0
0.140542 0.156475 0 0.0664249 -0.83498 0
0.143761 0.154224 0 0.0758854 -0.860852 0
0.143761 0.154224 0.0146 0.0758854 -0.860852 0
0.146981 0.15108 0 0.077334 -0.8463 0
0.146603 0.150701 0.00138725 0.0845836 -0.885962 0
0.146981 0.15108 0.0146 0.077334 -0.8463 0
0.146603 0.150701 0.0132127 0.0845836 -0.885962 0
0.120609 0.161885 0 0.0583112 -0.712707 0
0.120079 0.162324 0.0133817 0.0569107 -0.709792 0
0.120079 0.162324 0.00121829 0.0569107 -0.709792 0
0.120609 0.161885 0.0123773 0.0583112 -0.712707 0
0.120609 0.161885 0.0146 0.0583112 -0.712707 0
0.115443 0.162856 0.0146 0.0560987 -0.688615 0
0.115443 0.162856 0.00271959 0.0560987 -0.688615 0
0.115443 0.162856 0 0.0560987 -0.688615 0
0.119727 0.161971 0 0.0581762 -0.708583 0
0.119727 0.161971 0.0146 0.0581762 -0.708583 0
0.126957 0.160648 0 0.060021 -0.7461 0
0.125669 0.161562 0.0116394 0.0570826 -0.73808 0
0.125669 0.161562 0.00296059 0.0570826 -0.73808 0
0.126957 0.160648 0.00954745 0.060021 -0.7461 0
0.126957 0.160648 0.0146 0.060021 -0.7461 0
0.121317 0.162144 0.0129708 0.0569427 -0.715688 0
0.121317 0.162144 0.00162917 0.0569427 -0.715688 0
0.125059 0.160949 0 0.0597952 -0.736241 0
0.125059 0.160949 0.0146 0.0597952 -0.736241 0
0.133304 0.159138 0 0.0634636 -0.784475 0
0.13001 0.160245 0.00720783 0.0575405 -0.761346 0
0.133304 0.159138 0.00609325 0.0634636 -0.784475 0
0.133304 0.159138 0.0146 0.0634636 -0.784475 0
0.130321 0.159857 0 0.0623333 -0.768037 0
0.130321 0.159857 0.0146 0.0623333 -0.768037 0
0.139652 0.157043 0 0.06532 -0.829556 0
0.139652 0.157043 0.00129806 0.06532 -0.829556 0
0.139128 0.157003 0.00120672 0.065047 -0.823378 0
0.139128 0.157003 0.0133933 0.065047 -0.823378 0
0.139652 0.157043 0.0146 0.06532 -0.829556 0
0.135433 0.158615 0 0.0649352 -0.80281 0
0.13491 0.158089 0.0073 0.0641984 -0.790769 0
0.135433 0.158615 0.0146 0.0649352 -0.80281 0
0.140136 0.156962 0 0.0628446 -0.830298 0
0.139918 0.156743 0.000612535 0.0653714 -0.830506 0
0.140136 0.156962 0.0146 0.0628446 -0.830298 0
0.139918 0.156743 0.0139875 0.0653714 -0.830506 0
0.0761739 0.168534 0 0.0398959 -0.559231 0
0.0757788 0.16884 0.0136914 0.0391918 -0.558245 0
0.0757788 0.16884 0.000908649 0.0391918 -0.558245 0
0.0761739 0.168534 0.0129914 0.0398959 -0.559231 0
0.0761739 0.168534 0.0146 0.0398959 -0.559231 0
0.0702391 0.169237 0.0146 0.0364549 -0.545587 0
0.0702391 0.169237 0.000949882 0.0364549 -0.545587 0
0.0702391 0.169237 0 0.0364549 -0.545587 0
0.0755146 0.168575 0 0.039559 -0.557711 0
0.0755146 0.168575 0.0146 0.039559 -0.557711 0
0.0825217 0.167785 0 0.0430235 -0.575484 0
0.0816554 0.168366 0.0126073 0.0415871 -0.572999 0
0.0816554 0.168366 0.00199265 0.0415871 -0.572999 0
0.0825217 0.167785 0.0112772 0.0430235 -0.575484 0
0.0825217 0.167785 0.0146 0.0430235 -0.575484 0
0.0766426 0.168766 0.0135221 0.0395608 -0.560278 0
0.0766426 0.168766 0.00107788 0.0395608 -0.560278 0
0.0811787 0.167887 0 0.0424017 -0.572063 0
0.0811787 0.167887 0.0146 0.0424017 -0.572063 0
0.0888696 0.166991 0 0.0454556 -0.59346 0
0.0874338 0.167794 0.0112977 0.043236 -0.588765 0
0.0874338 0.167794 0.00330228 0.043236 -0.588765 0
0.0888696 0.166991 0.00945944 0.0454556 -0.59346 0
0.0888696 0.166991 0.0146 0.0454556 -0.59346 0
0.0836105 0.168143 0.0120958 0.0422575 -0.578057 0
0.0836105 0.168143 0.00250423 0.0422575 -0.578057 0
0.0868514 0.167209 0 0.0445463 -0.5878 0
0.0868514 0.167209 0.0146 0.0445463 -0.5878 0
0.0952174 0.16611 0 0.0477028 -0.613562 0
0.0919374 0.166949 0.00721865 0.0448504 -0.601722 0
0.0952174 0.16611 0.00744554 0.0477028 -0.613562 0
0.0952174 0.16611 0.0146 0.0477028 -0.613562 0
0.0924835 0.166489 0 0.0463632 -0.605256 0
0.0924835 0.166489 0.0146 0.0463632 -0.605256 0
0.101565 0.165181 0 0.0513623 -0.635694 0
0.101565 0.165181 0.00531991 0.0513623 -0.635694 0
0.0984856 0.16534 0.00737233 0.0488425 -0.622069 0
0.101565 0.165181 0.0146 0.0513623 -0.635694 0
0.0980594 0.165713 0 0.0498649 -0.624298 0
0.0980594 0.165713 0.0146 0.0498649 -0.624298 0
0.107913 0.164197 0 0.0553038 -0.659468 0
0.107913 0.164197 0.00306812 0.0553038 -0.659468 0
0.106838 0.163937 0.00247307 0.0532662 -0.652696 0
0.106838 0.163937 0.0121269 0.0532662 -0.652696 0
0.107913 0.164197 0.0146 0.0553038 -0.659468 0
0.103613 0.164915 0 0.0544603 -0.644743 0
0.103083 0.164383 0.00349199 0.0517772 -0.638566 0
0.103083 0.164383 0.011108 0.0517772 -0.638566 0
0.103613 0.164915 0.0146 0.0544603 -0.644743 0
0.114261 0.163092 0 0.0564715 -0.683868 0
0.114261 0.163092 0.000538751 0.0564715 -0.683868 0
0.114103 0.163015 0.000363387 0.0558187 -0.682476 0
0.114103 0.163015 0.0142366 0.0558187 -0.682476 0
0.114261 0.163092 0.0146 0.0564715 -0.683868 0
0.10911 0.16406 0 0.0574723 -0.66548 0
0.108679 0.163626 0.00176076 0.0542447 -0.659925 0
0.108679 0.163626 0.0128392 0.0542447 -0.659925 0
0.10911 0.16406 0.0146 0.0574723 -0.66548 0
0.114475 0.163071 0 0.056848 -0.684993 0
0.114383 0.162979 0.000280591 0.0559252 -0.683709 0
0.114475 0.163071 0.0146 0.056848 -0.684993 0
0.114383 0.162979 0.0143194 0.0559252 -0.683709 0
0.00634783 0.17293 0 0.00389383 -0.474189 0
0.00316753 0.173365 0.0072951 0.00226041 -0.402258 0
0.00634783 0.17293 0.00844877 0.00389383 -0.474189 0
0.00634783 0.17293 0.0146 0.00389383 -0.474189 0
0 0.172981 0.0146 0 0 0
0 0.172981 0.00856695 0 0 0
0 0.172981 0 0 0 0
0.00369485 0.172951 0 0.00219877 -0.276197 0
0.00369485 0.172951 0.0146 0.00219877 -0.276197 0
0.0126957 0.172816 0 0.00669516 -0.476478 0
0.00950945 0.173216 0.00729058 0.00510118 -0.474316 0
0.0126957 0.172816 0.00818726 0.00669516 -0.476478 0
0.0126957 0.172816 0.0146 0.00669516 -0.476478 0
0.00995657 0.172865 0 0.00525015 -0.475441 0
0.00995657 0.172865 0.0146 0.00525015 -0.475441 0
0.0190435 0.172662 0 0.00963732 -0.47941 0
0.0158568 0.173016 0.00729025 0.00804272 -0.476488 0
0.0190435 0.172662 0.00783615 0.00963732 -0.47941 0
0.0190435 0.172662 0.0146 0.00963732 -0.47941 0
0.0161717 0.172732 0 0.00806643 -0.478142 0
0.0161717 0.172732 0.0146 0.00806643 -0.478142 0
0.0253913 0.172452 0 0.0121486 -0.483402 0
0.0222088 0.172702 0.00729345 0.0110657 -0.47961 0
0.0253913 0.172452 0.00735453 0.0121486 -0.483402 0
0.0253913 0.172452 0.0146 0.0121486 -0.483402 0
0.0223419 0.172553 0 0.0104524 -0.481519 0
0.0223419 0.172553 0.0146 0.0104524 -0.481519 0
0.0317391 0.172186 0 0.014258 -0.488231 0
0.0317391 0.172186 0.00674691 0.014258 -0.488231 0
0.0285729 0.172242 0.00730586 0.0143835 -0.483894 0
0.0317391 0.172186 0.0146 0.014258 -0.488231 0
0.0284637 0.172326 0 0.0123542 -0.485614 0
0.0284637 0.172326 0.0146 0.0123542 -0.485614 0
0.038087 0.171865 0 0.0180395 -0.494383 0
0.038087 0.171865 0.00601138 0.0180395 -0.494383 0
0.0349448 0.171746 0.00732434 0.0177836 -0.48977 0
0.038087 0.171865 0.0146 0.0180395 -0.494383 0
0.0345376 0.17205 0 0.015971 -0.490889 0
0.0345376 0.17205 0.0146 0.015971 -0.490889 0
0.0444348 0.171487 0 0.0229098 -0.50218 0
0.0444348 0.171487 0.00514829 0.0229098 -0.50218 0
0.0413208 0.171245 0.00734596 0.0212396 -0.496883 0
0.0444348 0.171487 0.0146 0.0229098 -0.50218 0
0.0405654 0.171729 0 0.0207811 -0.49768 0
0.0405654 0.171729 0.0146 0.0207811 -0.49768 0
0.0507826 0.171052 0 0.0268166 -0.511396 0
0.0507826 0.171052 0.00415298 0.0268166 -0.511396 0
0.0493451 0.170682 0.00330637 0.0255956 -0.507555 0
0.0493451 0.170682 0.0112936 0.0255956 -0.507555 0
0.0507826 0.171052 0.0146 0.0268166 -0.511396 0
0.0465477 0.171361 0 0.024608 -0.505762 0
0.0460522 0.170863 0.0073 0.0238193 -0.502933 0
0.0465477 0.171361 0.0146 0.024608 -0.505762 0
0.0571304 0.170552 0 0.0297138 -0.521774 0
0.0571304 0.170552 0.00300902 0.0297138 -0.521774 0
0.056174 0.170199 0.00219973 0.0292149 -0.518287 0
0.056174 0.170199 0.0124003 0.0292149 -0.518287 0
0.0571304 0.170552 0.0146 0.0297138 -0.521774 0
0.052482 0.170946 0 0.0272762 -0.514846 0
0.0519819 0.170443 0.00275839 0.0270173 -0.511516 0
0.0519819 0.170443 0.0118416 0.0270173 -0.511516 0
0.052482 0.170946 0.0146 0.0272762 -0.514846 0
0.0634783 0.169974 0 0.0327639 -0.532945 0
0.0634783 0.169974 0.00168529 0.0327639 -0.532945 0
0.0629835 0.169735 0.00113788 0.0327455 -0.530621 0
0.0629835 0.169735 0.0134621 0.0327455 -0.530621 0
0.0634783 0.169974 0.0146 0.0327639 -0.532945 0
0.0583607 0.170474 0 0.0299687 -0.524506 0
0.0579361 0.170047 0.00185303 0.0301469 -0.52135 0
0.0579361 0.170047 0.012747 0.0301469 -0.52135 0
0.0583607 0.170474 0.0146 0.0299687 -0.524506 0
0.0698261 0.169289 0 0.0362073 -0.544758 0
0.0698261 0.169289 0.00011776 0.0362073 -0.544758 0
0.069794 0.16927 7.37643e-05 0.0362325 -0.544568 0
0.069794 0.16927 0.0145262 0.0362325 -0.544568 0
0.0698261 0.169289 0.0146 0.0362073 -0.544758 0
0.0641677 0.16993 0 0.0328148 -0.534639 0
0.0638993 0.169661 0.000968473 0.0332369 -0.532421 0
0.0638993 0.169661 0.0136315 0.0332369 -0.532421 0
0.0641677 0.16993 0.0146 0.0328148 -0.534639 0
0.0698744 0.169286 0 0.036205 -0.54489 0
0.0698537 0.169265 6.36155e-05 0.0362649 -0.544699 0
0.0698744 0.169286 0.0146 0.036205 -0.54489 0
0.0698537 0.169265 0.0145364 0.0362649 -0.544699 0
