# p  POINT_DATA 261
# x y z  p
0.180452 0.00471759 0.0114797 99425.7
0.179486 0.00599987 0.0146 99438.1
0.180452 0.00471759 0.00312029 99425.7
0.179486 0.00599987 0.00200849 99438.1
0.179486 0.00599987 0 99438.1
0.183059 0 0 99451.5
0.183059 0 0.00611788 99451.5
0.182318 0.00216376 0.0073 99424.1
0.183059 0 0.0146 99451.5
0.182259 0.00213624 0 99454
0.182259 0.00213624 0.0146 99454
0.177739 0.00752382 0 99435.7
0.175149 0.0107756 0.0116211 99427.3
0.175149 0.0107756 0.00297889 99427.3
0.177739 0.00752382 0.00370835 99435.7
0.177739 0.00752382 0.0146 99435.7
0.173079 0.0119997 0.0146 99456.1
0.173079 0.0119997 0.00924139 99456.1
0.173079 0.0119997 0 99456.1
0.174086 0.0102731 0 99467
0.174086 0.0102731 0.0146 99467
0.179149 0.00666635 0 99439.2
0.178514 0.00636603 0.000891009 99438.7
0.179149 0.00666635 0.0146 99439.2
0.178514 0.00636603 0.013709 99438.7
0.170592 0.0150865 0.00737044 99408.3
0.169628 0.0179996 0.0146 99452.1
0.169628 0.0179996 0.0052718 99452.1
0.169628 0.0179996 0 99452.1
0.171277 0.0149455 0 99466.8
0.171277 0.0149455 0.0146 99466.8
0.166705 0.0232144 0.0126896 99438.4
0.16728 0.0239995 0.0146 99443.5
0.166705 0.0232144 0.00191036 99438.4
0.16728 0.0239995 0.00257159 99443.5
0.16728 0.0239995 0 99443.5
0.167779 0.0192925 0.00314618 99445.8
0.169025 0.0198811 0 99456.4
0.169025 0.0198811 0.0146 99456.4
0.167779 0.0192925 0.0114538 99445.8
0.165236 0.0299083 0.0143784 99430.2
0.165343 0.0299994 0.0146 99430.4
0.165236 0.0299083 0.0002216 99430.2
0.165343 0.0299994 0.000344748 99430.4
0.165343 0.0299994 0 99430.4
0.166319 0.0246023 0.00146683 99442.1
0.167109 0.0249754 0 99444.3
0.167109 0.0249754 0.0146 99444.3
0.166319 0.0246023 0.0131332 99442.1
0.165043 0.0310562 0 99428.6
0.164268 0.0356328 0.0137083 99419.9
0.164268 0.0356328 0.000891749 99419.9
0.165043 0.0310562 0.00257173 99428.6
0.165043 0.0310562 0.0146 99428.6
0.163688 0.0359992 0.0146 99429.4
0.163688 0.0359992 0.0130407 99429.4
0.163688 0.0359992 0 99429.4
0.163781 0.0354025 0 99432.2
0.163781 0.0354025 0.0146 99432.2
0.165327 0.0301333 0 99430.5
0.165207 0.0300767 0.000188248 99430.4
0.165327 0.0301333 0.0146 99430.5
0.165207 0.0300767 0.0144118 99430.4
0.163433 0.0412381 0.00185168 99410.5
0.164111 0.0364398 0.00107209 99417.1
0.163433 0.0412381 0.0127483 99410.5
0.164111 0.0364398 0.0135279 99417.1
0.16246 0.0419991 0.0146 99427.6
0.16246 0.0419991 0.0116294 99427.6
0.16246 0.0419991 0 99427.6
0.162619 0.0408532 0 99431.9
0.162619 0.0408532 0.0146 99431.9
0.162674 0.0468791 0.00272513 99402.9
0.163152 0.0428932 0.00217566 99406.7
0.162674 0.0468791 0.0118749 99402.9
0.163152 0.0428932 0.0124243 99406.7
0.161495 0.047999 0.0146 99423.8
0.161495 0.047999 0.010519 99423.8
0.161495 0.047999 0 99423.8
0.161694 0.046416 0 99429.4
0.161694 0.046416 0.0146 99429.4
0.161666 0.0573659 0.0073 99397.2
0.162178 0.0508796 0.00329558 99399.5
0.162178 0.0508796 0.0113044 99399.5
0.160224 0.0607609 0.0146 99419.2
0.160224 0.0607609 0.00905741 99419.2
0.160224 0.0607609 0 99419.2
0.160613 0.0563076 0 99426.8
0.160613 0.0563076 0.0146 99426.8
0.160067 0.0670052 0.0072479 99392.8
0.158902 0.0735228 0.0146 99415.1
0.158902 0.0735228 0.00753687 99415.1
0.158902 0.0735228 0 99415.1
0.159446 0.0678963 0 99421.7
0.159446 0.0678963 0.0146 99421.7
0.157991 0.0799582 0.00732073 99396
0.157844 0.0862847 0.0146 99411.7
0.157844 0.0862847 0.00632004 99411.7
0.157844 0.0862847 0 99411.7
0.158387 0.0795939 0 99416.9
0.158387 0.0795939 0.0146 99416.9
0.156492 0.0927941 0.00734896 99402.1
0.156947 0.0990467 0.0146 99408.3
0.156947 0.0990467 0.00528944 99408.3
0.156947 0.0990467 0 99408.3
0.15748 0.0914439 0 99412.7
0.15748 0.0914439 0.0146 99412.7
0.155328 0.108813 0.011173 99401.5
0.156174 0.111809 0.0146 99404.7
0.155328 0.108813 0.00342703 99401.5
0.156174 0.111809 0.00440007 99404.7
0.156174 0.111809 0 99404.7
0.15562 0.102336 0.0073 99404.2
0.156683 0.103405 0 99408.8
0.156683 0.103405 0.0146 99408.8
0.154589 0.122318 0.0120225 99399.9
0.155493 0.124571 0.0146 99401.2
0.154589 0.122318 0.00257746 99399.9
0.155493 0.124571 0.00361693 99401.2
0.155493 0.124571 0 99401.2
0.154881 0.114355 0.00291285 99402.8
0.155979 0.115459 0 99405
0.155979 0.115459 0.0146 99405
0.154881 0.114355 0.0116872 99402.8
0.154031 0.13564 0.0126639 99397.3
0.154892 0.137332 0.0146 99397.8
0.154031 0.13564 0.00193611 99397.3
0.154892 0.137332 0.00292558 99397.8
0.154892 0.137332 0 99397.8
0.154306 0.126539 0.00225246 99400.4
0.155351 0.127589 0 99401.4
0.155351 0.127589 0.0146 99401.4
0.154306 0.126539 0.0123475 99400.4
0.153644 0.148791 0.0131092 99394.1
0.154444 0.150094 0.0146 99394.3
0.153644 0.148791 0.00149084 99394.1
0.154444 0.150094 0.00241046 99394.3
0.154444 0.150094 0 99394.3
0.153855 0.138848 0.00173377 99397.5
0.154805 0.139803 0 99397.9
0.154805 0.139803 0.0146 99397.9
0.153855 0.138848 0.0128662 99397.5
0.153518 0.16168 0.0132541 99390.6
0.154346 0.162856 0.0146 99390.6
0.153518 0.16168 0.00134586 99390.6
0.154346 0.162856 0.00229782 99390.6
0.154346 0.162856 0 99390.6
0.153565 0.151317 0.00139919 99394.1
0.154428 0.152185 0 99394.3
0.154428 0.152185 0.0146 99394.3
0.153565 0.151317 0.0132008 99394.1
0.153173 0.174789 0.0136514 99389.7
0.153751 0.175618 0.0146 99389.7
0.153173 0.174789 0.000948614 99389.7
0.153751 0.175618 0.00161401 99389.7
0.153751 0.175618 0 99389.7
0.153549 0.164064 0.00138162 99390.6
0.154413 0.164932 0 99390.6
0.154413 0.164932 0.0146 99390.6
0.153549 0.164064 0.0132184 99390.6
0.139652 0.188308 0 99392.6
0.139615 0.188343 0.0145574 99392.6
0.139615 0.188343 4.25602e-05 99392.6
0.139652 0.188308 0.0145175 99392.6
0.139652 0.188308 0.0146 99392.6
0.139237 0.18838 0.0146 99392.7
0.139237 0.18838 0.0141227 99392.7
0.139237 0.18838 0 99392.7
0.139585 0.188313 0 99392.6
0.139585 0.188313 0.0146 99392.6
0.152348 0.178135 0 99389.9
0.149877 0.185897 0.0117587 99391.1
0.149877 0.185897 0.00284126 99391.1
0.152348 0.178135 0.00287871 99389.9
0.152348 0.178135 0.0146 99389.9
0.139701 0.188331 0.0145442 99392.6
0.139701 0.188331 5.57934e-05 99392.6
0.148288 0.184299 0 99390.8
0.148288 0.184299 0.0146 99390.8
0.153699 0.176976 0 99389.7
0.153306 0.176581 0.00110182 99389.8
0.153699 0.176976 0.0146 99389.7
0.153306 0.176581 0.0134982 99389.8
0.0126957 0.193756 0 99412.7
0.0126957 0.193756 0.0061499 99412.7
0.00635142 0.19312 0.00730138 99416.4
0.0126957 0.193756 0.0146 99412.7
0 0.193787 0.0146 99412.9
0 0.193787 0.00618503 99412.9
0 0.193787 0 99412.9
0.00536607 0.193774 0 99412.9
0.00536607 0.193774 0.0146 99412.9
0.0253913 0.193665 0 99412.2
0.0253913 0.193665 0.00604636 99412.2
0.0190546 0.19303 0.00730425 99416.1
0.0253913 0.193665 0.0146 99412.2
0.0180078 0.19372 0 99412.7
0.0180078 0.19372 0.0146 99412.7
0.038087 0.193516 0 99411.4
0.038087 0.193516 0.00587581 99411.4
0.0317589 0.192859 0.00730759 99415.5
0.038087 0.193516 0.0146 99411.4
0.030592 0.193608 0 99412.2
0.030592 0.193608 0.0146 99412.2
0.0507826 0.193309 0 99410.2
0.0507826 0.193309 0.00563858 99410.2
0.0444654 0.192615 0.00731173 99414.6
0.0507826 0.193309 0.0146 99410.2
0.0431207 0.19344 0 99411.3
0.0431207 0.19344 0.0146 99411.3
0.0634783 0.193043 0 99408.7
0.0634783 0.193043 0.0053349 99408.7
0.0571742 0.19231 0.00731679 99413.2
0.0634783 0.193043 0.0146 99408.7
0.0555947 0.193217 0 99410.1
0.0555947 0.193217 0.0146 99410.1
0.0761739 0.192719 0 99406.8
0.0761739 0.192719 0.00496382 99406.8
0.0698856 0.191952 0.00732283 99411.5
0.0761739 0.192719 0.0146 99406.8
0.0680141 0.19294 0 99408.6
0.0680141 0.19294 0.0146 99408.6
0.0888696 0.192334 0 99404.6
0.0888696 0.192334 0.00452353 99404.6
0.08579 0.191476 0.00354153 99408.3
0.08579 0.191476 0.0110585 99408.3
0.0888696 0.192334 0.0146 99404.6
0.0803792 0.192607 0 99406.7
0.0794095 0.191633 0.0073 99410
0.0803792 0.192607 0.0146 99406.7
0.101565 0.191883 0 99402
0.101565 0.191883 0.00400726 99402
0.0989367 0.191022 0.00302278 99405.3
0.0989367 0.191022 0.0115772 99405.3
0.101565 0.191883 0.0146 99402
0.0926889 0.19222 0 99404.4
0.0916983 0.191224 0.00325307 99407.5
0.0916983 0.191224 0.0113469 99407.5
0.0926889 0.19222 0.0146 99404.4
0.114261 0.191301 0 99399
0.114261 0.191301 0.00334136 99399
0.112143 0.190509 0.00243564 99401.7
0.112143 0.190509 0.0121644 99401.7
0.114261 0.191301 0.0146 99399
0.104927 0.191759 0 99401.8
0.103964 0.190792 0.00275901 99404.5
0.103964 0.190792 0.011841 99404.5
0.104927 0.191759 0.0146 99401.8
0.126957 0.190377 0 99395.6
0.126957 0.190377 0.00228449 99395.6
0.125558 0.189786 0.00160859 99397.4
0.125558 0.189786 0.0129914 99397.4
0.126957 0.190377 0.0146 99395.6
0.117019 0.191153 0 99398.7
0.116147 0.190277 0.00216961 99400.8
0.116147 0.190277 0.0124304 99400.8
0.117019 0.191153 0.0146 99398.7
0.128775 0.190208 0 99395.2
0.128135 0.189565 0.00135548 99396.4
0.128775 0.190208 0.0146 99395.2
0.128135 0.189565 0.0132445 99396.4
