# U  POINT_DATA 261
# x y z  U_x U_y U_z
0.180452 0.00471759 0.0114797 0.947384 -0.097507 0
0.179486 0.00599987 0.0146 0.98564 -0.10322 0
0.180452 0.00471759 0.00312029 0.947384 -0.097507 0
0.179486 0.00599987 0.00200849 0.98564 -0.10322 0
0.179486 0.00599987 0 0.98564 -0.10322 0
0.183059 0 0 0 0 0
0.183059 0 0.00611788 0 0 0
0.182318 0.00216376 0.0073 0.690884 -0.0513795 0
0.183059 0 0.0146 0 0 0
0.182259 0.00213624 0 0.453805 -0.00572375 0
0.182259 0.00213624 0.0146 0.453805 -0.00572375 0
0.177739 0.00752382 0 0.963787 -0.134426 0
0.175149 0.0107756 0.0116211 0.961877 -0.1624 0
0.175149 0.0107756 0.00297889 0.961877 -0.1624 0
0.177739 0.00752382 0.00370835 0.963787 -0.134426 0
0.177739 0.00752382 0.0146 0.963787 -0.134426 0
0.173079 0.0119997 0.0146 0.938449 -0.182938 0
0.173079 0.0119997 0.00924139 0.938449 -0.182938 0
0.173079 0.0119997 0 0.938449 -0.182938 0
0.174086 0.0102731 0 0.967025 -0.157445 0
0.174086 0.0102731 0.0146 0.967025 -0.157445 0
0.179149 0.00666635 0 0.965686 -0.103854 0
0.178514 0.00636603 0.000891009 0.957641 -0.12875 0
0.179149 0.00666635 0.0146 0.965686 -0.103854 0
0.178514 0.00636603 0.013709 0.957641 -0.12875 0
0.170592 0.0150865 0.00737044 0.809404 -0.254649 0
0.169628 0.0179996 0.0146 0.83462 -0.250289 0
0.169628 0.0179996 0.0052718 0.83462 -0.250289 0
0.169628 0.0179996 0 0.83462 -0.250289 0
0.171277 0.0149455 0 0.896223 -0.186728 0
0.171277 0.0149455 0.0146 0.896223 -0.186728 0
0.166705 0.0232144 0.0126896 0.700198 -0.362656 0
0.16728 0.0239995 0.0146 0.712541 -0.326909 0
0.166705 0.0232144 0.00191036 0.700198 -0.362656 0
0.16728 0.0239995 0.00257159 0.712541 -0.326909 0
0.16728 0.0239995 0 0.712541 -0.326909 0
0.167779 0.0192925 0.00314618 0.747272 -0.32209 0
0.169025 0.0198811 0 0.77896 -0.250079 0
0.169025 0.0198811 0.0146 0.77896 -0.250079 0
0.167779 0.0192925 0.0114538 0.747272 -0.32209 0
0.165236 0.0299083 0.0143784 0.620213 -0.406258 0
0.165343 0.0299994 0.0146 0.621154 -0.399978 0
0.165236 0.0299083 0.0002216 0.620213 -0.406258 0
0.165343 0.0299994 0.000344748 0.621154 -0.399978 0
0.165343 0.0299994 0 0.621154 -0.399978 0
0.166319 0.0246023 0.00146683 0.681921 -0.371182 0
0.167109 0.0249754 0 0.691362 -0.326241 0
0.167109 0.0249754 0.0146 0.691362 -0.326241 0
0.166319 0.0246023 0.0131332 0.681921 -0.371182 0
0.165043 0.0310562 0 0.607325 -0.411724 0
0.164268 0.0356328 0.0137083 0.556764 -0.434268 0
0.164268 0.0356328 0.000891749 0.556764 -0.434268 0
0.165043 0.0310562 0.00257173 0.607325 -0.411724 0
0.165043 0.0310562 0.0146 0.607325 -0.411724 0
0.163688 0.0359992 0.0146 0.553014 -0.431651 0
0.163688 0.0359992 0.0130407 0.553014 -0.431651 0
0.163688 0.0359992 0 0.553014 -0.431651 0
0.163781 0.0354025 0 0.558037 -0.428397 0
0.163781 0.0354025 0.0146 0.558037 -0.428397 0
0.165327 0.0301333 0 0.618499 -0.399641 0
0.165207 0.0300767 0.000188248 0.618117 -0.407055 0
0.165327 0.0301333 0.0146 0.618499 -0.399641 0
0.165207 0.0300767 0.0144118 0.618117 -0.407055 0
0.163433 0.0412381 0.00185168 0.498304 -0.455364 0
0.164111 0.0364398 0.00107209 0.548963 -0.438354 0
0.163433 0.0412381 0.0127483 0.498304 -0.455364 0
0.164111 0.0364398 0.0135279 0.548963 -0.438354 0
0.16246 0.0419991 0.0146 0.491759 -0.44983 0
0.16246 0.0419991 0.0116294 0.491759 -0.44983 0
0.16246 0.0419991 0 0.491759 -0.44983 0
0.162619 0.0408532 0 0.501295 -0.444805 0
0.162619 0.0408532 0.0146 0.501295 -0.444805 0
0.162674 0.0468791 0.00272513 0.443521 -0.470814 0
0.163152 0.0428932 0.00217566 0.482992 -0.462255 0
0.162674 0.0468791 0.0118749 0.443521 -0.470814 0
0.163152 0.0428932 0.0124243 0.482992 -0.462255 0
0.161495 0.047999 0.0146 0.435306 -0.461858 0
0.161495 0.047999 0.010519 0.435306 -0.461858 0
0.161495 0.047999 0 0.435306 -0.461858 0
0.161694 0.046416 0 0.447993 -0.456198 0
0.161694 0.046416 0.0146 0.447993 -0.456198 0
0.161666 0.0573659 0.0073 0.382822 -0.480002 0
0.162178 0.0508796 0.00329558 0.421115 -0.478321 0
0.162178 0.0508796 0.0113044 0.421115 -0.478321 0
0.160224 0.0607609 0.0146 0.364857 -0.468353 0
0.160224 0.0607609 0.00905741 0.364857 -0.468353 0
0.160224 0.0607609 0 0.364857 -0.468353 0
0.160613 0.0563076 0 0.385556 -0.460108 0
0.160613 0.0563076 0.0146 0.385556 -0.460108 0
0.160067 0.0670052 0.0072479 0.330237 -0.494387 0
0.158902 0.0735228 0.0146 0.295606 -0.454485 0
0.158902 0.0735228 0.00753687 0.295606 -0.454485 0
0.158902 0.0735228 0 0.295606 -0.454485 0
0.159446 0.0678963 0 0.321804 -0.443522 0
0.159446 0.0678963 0.0146 0.321804 -0.443522 0
0.157991 0.0799582 0.00732073 0.273463 -0.510788 0
0.157844 0.0862847 0.0146 0.246599 -0.422472 0
0.157844 0.0862847 0.00632004 0.246599 -0.422472 0
0.157844 0.0862847 0 0.246599 -0.422472 0
0.158387 0.0795939 0 0.272871 -0.40986 0
0.158387 0.0795939 0.0146 0.272871 -0.40986 0
0.156492 0.0927941 0.00734896 0.226133 -0.509387 0
0.156947 0.0990467 0.0146 0.208511 -0.407349 0
0.156947 0.0990467 0.00528944 0.208511 -0.407349 0
0.156947 0.0990467 0 0.208511 -0.407349 0
0.15748 0.0914439 0 0.234465 -0.392885 0
0.15748 0.0914439 0.0146 0.234465 -0.392885 0
0.155328 0.108813 0.011173 0.176073 -0.509689 0
0.156174 0.111809 0.0146 0.171797 -0.411637 0
0.155328 0.108813 0.00342703 0.176073 -0.509689 0
0.156174 0.111809 0.00440007 0.171797 -0.411637 0
0.156174 0.111809 0 0.171797 -0.411637 0
0.15562 0.102336 0.0073 0.194934 -0.508367 0
0.156683 0.103405 0 0.196859 -0.396791 0
0.156683 0.103405 0.0146 0.196859 -0.396791 0
0.154589 0.122318 0.0120225 0.139562 -0.509766 0
0.155493 0.124571 0.0146 0.137171 -0.422132 0
0.154589 0.122318 0.00257746 0.139562 -0.509766 0
0.155493 0.124571 0.00361693 0.137171 -0.422132 0
0.155493 0.124571 0 0.137171 -0.422132 0
0.154881 0.114355 0.00291285 0.160085 -0.508604 0
0.155979 0.115459 0 0.161183 -0.407206 0
0.155979 0.115459 0.0146 0.161183 -0.407206 0
0.154881 0.114355 0.0116872 0.160085 -0.508604 0
0.154031 0.13564 0.0126639 0.107056 -0.510754 0
0.154892 0.137332 0.0146 0.105345 -0.436487 0
0.154031 0.13564 0.00193611 0.107056 -0.510754 0
0.154892 0.137332 0.00292558 0.105345 -0.436487 0
0.154892 0.137332 0 0.105345 -0.436487 0
0.154306 0.126539 0.00225246 0.128409 -0.50925 0
0.155351 0.127589 0 0.128615 -0.421427 0
0.155351 0.127589 0.0146 0.128615 -0.421427 0
0.154306 0.126539 0.0123475 0.128409 -0.50925 0
0.153644 0.148791 0.0131092 0.0775484 -0.514664 0
0.154444 0.150094 0.0146 0.0752842 -0.452071 0
0.153644 0.148791 0.00149084 0.0775484 -0.514664 0
0.154444 0.150094 0.00241046 0.0752842 -0.452071 0
0.154444 0.150094 0 0.0752842 -0.452071 0
0.153855 0.138848 0.00173377 0.0989637 -0.511261 0
0.154805 0.139803 0 0.0975437 -0.437684 0
0.154805 0.139803 0.0146 0.0975437 -0.437684 0
0.153855 0.138848 0.0128662 0.0989637 -0.511261 0
0.153518 0.16168 0.0132541 0.0582354 -0.51846 0
0.154346 0.162856 0.0146 0.0567816 -0.459439 0
0.153518 0.16168 0.00134586 0.0582354 -0.51846 0
0.154346 0.162856 0.00229782 0.0567816 -0.459439 0
0.154346 0.162856 0 0.0567816 -0.459439 0
0.153565 0.151317 0.00139919 0.0715742 -0.516765 0
0.154428 0.152185 0 0.0705202 -0.455266 0
0.154428 0.152185 0.0146 0.0705202 -0.455266 0
0.153565 0.151317 0.0132008 0.0715742 -0.516765 0
0.153173 0.174789 0.0136514 0.0701688 -0.491491 0
0.153751 0.175618 0.0146 0.0729194 -0.450942 0
0.153173 0.174789 0.000948614 0.0701688 -0.491491 0
0.153751 0.175618 0.00161401 0.0729194 -0.450942 0
0.153751 0.175618 0 0.0729194 -0.450942 0
0.153549 0.164064 0.00138162 0.0581427 -0.51828 0
0.154413 0.164932 0 0.0617955 -0.459494 0
0.154413 0.164932 0.0146 0.0617955 -0.459494 0
0.153549 0.164064 0.0132184 0.0581427 -0.51828 0
0.139652 0.188308 0 0.0544085 -0.419449 0
0.139615 0.188343 0.0145574 0.0543544 -0.419315 0
0.139615 0.188343 4.25602e-05 0.0543544 -0.419315 0
0.139652 0.188308 0.0145175 0.0544085 -0.419449 0
0.139652 0.188308 0.0146 0.0544085 -0.419449 0
0.139237 0.18838 0.0146 0.053525 -0.418006 0
0.139237 0.18838 0.0141227 0.053525 -0.418006 0
0.139237 0.18838 0 0.053525 -0.418006 0
0.139585 0.188313 0 0.05439 -0.419323 0
0.139585 0.188313 0.0146 0.05439 -0.419323 0
0.152348 0.178135 0 0.0816923 -0.473159 0
0.149877 0.185897 0.0117587 0.096721 -0.438678 0
0.149877 0.185897 0.00284126 0.096721 -0.438678 0
0.152348 0.178135 0.00287871 0.0816923 -0.473159 0
0.152348 0.178135 0.0146 0.0816923 -0.473159 0
0.139701 0.188331 0.0145442 0.054437 -0.419499 0
0.139701 0.188331 5.57934e-05 0.054437 -0.419499 0
0.148288 0.184299 0 0.0999133 -0.438013 0
0.148288 0.184299 0.0146 0.0999133 -0.438013 0
0.153699 0.176976 0 0.085254 -0.45988 0
0.153306 0.176581 0.00110182 0.0792383 -0.480179 0
0.153699 0.176976 0.0146 0.085254 -0.45988 0
0.153306 0.176581 0.0134982 0.0792383 -0.480179 0
0.0126957 0.193756 0 -0.000743343 -0.301326 0
0.0126957 0.193756 0.0061499 -0.000743343 -0.301326 0
0.00635142 0.19312 0.00730138 0.000506439 -0.19917 0
0.0126957 0.193756 0.0146 -0.000743343 -0.301326 0
0 0.193787 0.0146 0 0 0
0 0.193787 0.00618503 0 0 0
0 0.193787 0 0 0 0
0.00536607 0.193774 0 -0.00174352 -0.149205 0
0.00536607 0.193774 0.0146 -0.00174352 -0.149205 0
0.0253913 0.193665 0 -0.002789 -0.304534 0
0.0253913 0.193665 0.00604636 -0.002789 -0.304534 0
0.0190546 0.19303 0.00730425 0.00139593 -0.235765 0
0.0253913 0.193665 0.0146 -0.002789 -0.304534 0
0.0180078 0.19372 0 -0.00381025 -0.302887 0
0.0180078 0.19372 0.0146 -0.00381025 -0.302887 0
0.038087 0.193516 0 -0.0038377 -0.309879 0
0.038087 0.193516 0.00587581 -0.0038377 -0.309879 0
0.0317589 0.192859 0.00730759 0.0023831 -0.241347 0
0.038087 0.193516 0.0146 -0.0038377 -0.309879 0
0.030592 0.193608 0 -0.00495398 -0.307166 0
0.030592 0.193608 0.0146 -0.00495398 -0.307166 0
0.0507826 0.193309 0 -0.00515003 -0.317269 0
0.0507826 0.193309 0.00563858 -0.00515003 -0.317269 0
0.0444654 0.192615 0.00731173 0.00344268 -0.24966 0
0.0507826 0.193309 0.0146 -0.00515003 -0.317269 0
0.0431207 0.19344 0 -0.0064054 -0.31341 0
0.0431207 0.19344 0.0146 -0.0064054 -0.31341 0
0.0634783 0.193043 0 -0.00635467 -0.326693 0
0.0634783 0.193043 0.0053349 -0.00635467 -0.326693 0
0.0571742 0.19231 0.00731679 0.0046009 -0.260655 0
0.0634783 0.193043 0.0146 -0.00635467 -0.326693 0
0.0555947 0.193217 0 -0.00782593 -0.32163 0
0.0555947 0.193217 0.0146 -0.00782593 -0.32163 0
0.0761739 0.192719 0 -0.00727297 -0.338098 0
0.0761739 0.192719 0.00496382 -0.00727297 -0.338098 0
0.0698856 0.191952 0.00732283 0.00588107 -0.274322 0
0.0761739 0.192719 0.0146 -0.00727297 -0.338098 0
0.0680141 0.19294 0 -0.00905432 -0.331761 0
0.0680141 0.19294 0.0146 -0.00905432 -0.331761 0
0.0888696 0.192334 0 -0.00749901 -0.35148 0
0.0888696 0.192334 0.00452353 -0.00749901 -0.35148 0
0.08579 0.191476 0.00354153 0.00770547 -0.294892 0
0.08579 0.191476 0.0110585 0.00770547 -0.294892 0
0.0888696 0.192334 0.0146 -0.00749901 -0.35148 0
0.0803792 0.192607 0 -0.00970916 -0.343786 0
0.0794095 0.191633 0.0073 0.00685523 -0.286385 0
0.0803792 0.192607 0.0146 -0.00970916 -0.343786 0
0.101565 0.191883 0 -0.0061291 -0.367124 0
0.101565 0.191883 0.00400726 -0.0061291 -0.367124 0
0.0989367 0.191022 0.00302278 0.00943724 -0.315253 0
0.0989367 0.191022 0.0115772 0.00943724 -0.315253 0
0.101565 0.191883 0.0146 -0.0061291 -0.367124 0
0.0926889 0.19222 0 -0.00906216 -0.357993 0
0.0916983 0.191224 0.00325307 0.00829749 -0.304061 0
0.0916983 0.191224 0.0113469 0.00829749 -0.304061 0
0.0926889 0.19222 0.0146 -0.00906216 -0.357993 0
0.114261 0.191301 0 -0.00143907 -0.385877 0
0.114261 0.191301 0.00334136 -0.00143907 -0.385877 0
0.112143 0.190509 0.00243564 0.0122433 -0.339221 0
0.112143 0.190509 0.0121644 0.0122433 -0.339221 0
0.114261 0.191301 0.0146 -0.00143907 -0.385877 0
0.104927 0.191759 0 -0.00599147 -0.37559 0
0.103964 0.190792 0.00275901 0.0102082 -0.324323 0
0.103964 0.190792 0.011841 0.0102082 -0.324323 0
0.104927 0.191759 0.0146 -0.00599147 -0.37559 0
0.126957 0.190377 0 0.0135262 -0.406601 0
0.126957 0.190377 0.00228449 0.0135262 -0.406601 0
0.125558 0.189786 0.00160859 0.0219624 -0.369135 0
0.125558 0.189786 0.0129914 0.0219624 -0.369135 0
0.126957 0.190377 0.0146 0.0135262 -0.406601 0
0.117019 0.191153 0 0.00117003 -0.397886 0
0.116147 0.190277 0.00216961 0.0138107 -0.348243 0
0.116147 0.190277 0.0124304 0.0138107 -0.348243 0
0.117019 0.191153 0.0146 0.00117003 -0.397886 0
0.128775 0.190208 0 0.0237775 -0.418432 0
0.128135 0.189565 0.00135548 0.0269121 -0.376846 0
0.128775 0.190208 0.0146 0.0237775 -0.418432 0
0.128135 0.189565 0.0132445 0.0269121 -0.376846 0
