# p  POINT_DATA 392
# x y z  p
0.20313 0.0715894 0 97784.7
0.20204 0.0724264 0.0133457 97769.6
0.20204 0.0724264 0.0012543 97769.6
0.20313 0.0715894 0.0123881 97784.7
0.20313 0.0715894 0.0146 97784.7
0.19332 0.0735228 0.0146 97776.1
0.19332 0.0735228 0.00331787 97776.1
0.19332 0.0735228 0 97776.1
0.201354 0.0717375 0 97785.5
0.201354 0.0717375 0.0146 97785.5
0.215826 0.070508 0 97790.5
0.213939 0.0716254 0.0124293 97761.3
0.213939 0.0716254 0.00217066 97761.3
0.215826 0.070508 0.011151 97790.5
0.215826 0.070508 0.0146 97790.5
0.204447 0.0721989 0.0130854 97765.4
0.204447 0.0721989 0.00151458 97765.4
0.212982 0.0706644 0 97789.4
0.212982 0.0706644 0.0146 97789.4
0.228522 0.0709106 0 97796.1
0.226672 0.0716632 0.0124726 97767
0.226672 0.0716632 0.00212742 97767
0.228522 0.0709106 0.0116116 97796.1
0.228522 0.0709106 0.0146 97796.1
0.217904 0.0714346 0.012211 97762
0.217904 0.0714346 0.00238903 97762
0.22589 0.0708774 0 97792.6
0.22589 0.0708774 0.0146 97792.6
0.241217 0.0733039 0 97788.8
0.24106 0.0733649 0.0144194 97786.3
0.24106 0.0733649 0.00018064 97786.3
0.241217 0.0733039 0.0143496 97788.8
0.241217 0.0733039 0.0146 97788.8
0.230093 0.0719436 0.0127933 97774.2
0.230093 0.0719436 0.00180667 97774.2
0.24097 0.0732744 0 97788.4
0.24097 0.0732744 0.0146 97788.4
0.241323 0.073417 0.0144789 97787
0.241323 0.073417 0.000121115 97787
0.241834 0.0735228 0.0146 97787.2
0.241834 0.0735228 0.000708645 97787.2
0.241834 0.0735228 0 97787.2
0.152348 0.0832362 0 97777.9
0.150701 0.0846297 0.0127066 97763.3
0.150701 0.0846297 0.00189339 97763.3
0.152348 0.0832362 0.0111124 97777.9
0.152348 0.0832362 0.0146 97777.9
0.141275 0.0862847 0.0146 97769.1
0.141275 0.0862847 0.0018666 97769.1
0.141275 0.0862847 0 97769.1
0.149715 0.0836386 0 97781.2
0.149715 0.0836386 0.0146 97781.2
0.165043 0.0802789 0 97782.9
0.161135 0.0823564 0.0073 97757.6
0.165043 0.0802789 0.00772915 97782.9
0.165043 0.0802789 0.0146 97782.9
0.155158 0.0834596 0.011368 97759.4
0.155158 0.0834596 0.003232 97759.4
0.160123 0.0813391 0 97786.4
0.160123 0.0813391 0.0146 97786.4
0.177739 0.0772423 0 97783.7
0.177739 0.0772423 0.00425522 97783.7
0.171805 0.077996 0.00745851 97769.8
0.177739 0.0772423 0.0146 97783.7
0.170574 0.0790817 0 97787.9
0.170574 0.0790817 0.0146 97787.9
0.190435 0.0741332 0 97778
0.190435 0.0741332 0.000698346 97778
0.189987 0.0739726 0.0005146 97777.5
0.189987 0.0739726 0.0140854 97777.5
0.190435 0.0741332 0.0146 97778
0.180884 0.0766839 0 97785.4
0.179847 0.0756415 0.00242384 97782.1
0.179847 0.0756415 0.0121762 97782.1
0.180884 0.0766839 0.0146 97785.4
0.190976 0.0740673 0 97778.1
0.190742 0.0738319 0.000353637 97778
0.190976 0.0740673 0.0146 97778.1
0.190742 0.0738319 0.0142464 97778
0.253913 0.0774467 0 97793.2
0.253913 0.0774467 0.00448901 97793.2
0.251953 0.075493 0.00225394 97793.1
0.251953 0.075493 0.0123461 97793.1
0.253913 0.0774467 0.0146 97793.2
0.266609 0.0835402 0 97770.8
0.266609 0.0835402 0.0114602 97770.8
0.260081 0.0794301 0.00723108 97760.6
0.266609 0.0835402 0.0146 97770.8
0.261604 0.0812543 0 97776.8
0.261604 0.0812543 0.0146 97776.8
0.267754 0.0851333 0.0132827 97756
0.267754 0.0851333 0.00131728 97756
0.270569 0.0862847 0.0146 97755.3
0.270569 0.0862847 0.00455399 97755.3
0.270569 0.0862847 0 97755.3
0.0888696 0.0986225 0 97766.5
0.0886462 0.0988221 0.0143431 97764.7
0.0886462 0.0988221 0.00025691 97764.7
0.0888696 0.0986225 0.0141147 97766.5
0.0888696 0.0986225 0.0146 97766.5
0.0867941 0.0990467 0.0146 97765.3
0.0867941 0.0990467 0.0122132 97765.3
0.0867941 0.0990467 0 97765.3
0.0884805 0.0986556 0 97766.9
0.0884805 0.0986556 0.0146 97766.9
0.101565 0.0959431 0 97772.8
0.0998162 0.0972886 0.0125887 97760.6
0.0998162 0.0972886 0.00201131 97760.6
0.101565 0.0959431 0.0110494 97772.8
0.101565 0.0959431 0.0146 97772.8
0.0891579 0.0987569 0.0142685 97764.2
0.0891579 0.0987569 0.000331538 97764.2
0.0988284 0.0962956 0 97775.2
0.0988284 0.0962956 0.0146 97775.2
0.114261 0.0932534 0 97776.1
0.110502 0.0952683 0.0073 97756.6
0.114261 0.0932534 0.00797236 97776.1
0.114261 0.0932534 0.0146 97776.1
0.104299 0.096299 0.0114566 97757.8
0.104299 0.096299 0.00314341 97757.8
0.109417 0.0941778 0 97779.4
0.109417 0.0941778 0.0146 97779.4
0.126957 0.0903062 0 97775.5
0.126957 0.0903062 0.0046007 97775.5
0.120931 0.0911975 0.00742336 97764.1
0.126957 0.0903062 0.0146 97775.5
0.119987 0.0920411 0 97780.1
0.119987 0.0920411 0.0146 97780.1
0.139652 0.0867741 0 97769.8
0.139652 0.0867741 0.000559844 97769.8
0.139268 0.0866709 0.000441769 97769.5
0.139268 0.0866709 0.0141582 97769.5
0.139652 0.0867741 0.0146 97769.8
0.130298 0.0896441 0 97777
0.12928 0.0886199 0.00267146 97774.1
0.12928 0.0886199 0.0119285 97774.1
0.130298 0.0896441 0.0146 97777
0.140082 0.0867165 0 97769.9
0.139888 0.0865218 0.000271228 97769.8
0.140082 0.0867165 0.0146 97769.9
0.139888 0.0865218 0.0143288 97769.8
0.279304 0.092224 0 97751.6
0.279304 0.092224 0.0067947 97751.6
0.276739 0.0888636 0.00295025 97753.6
0.276739 0.0888636 0.0116498 97753.6
0.279304 0.092224 0.0146 97751.6
0.282552 0.0957824 0.0073 97739.1
0.290202 0.0990467 0.0146 97736
0.290202 0.0990467 0.012532 97736
0.290202 0.0990467 0 97736
0.0126957 0.107045 0 97771.5
0.00632448 0.108161 0.00729105 97755.8
0.0126957 0.107045 0.00914984 97771.5
0.0126957 0.107045 0.0146 97771.5
0 0.107186 0.0146 97771.2
0 0.107186 0.00931112 97771.2
0 0.107186 0 97771.2
0.00800816 0.107097 0 97771.5
0.00800816 0.107097 0.0146 97771.5
0.0253913 0.106569 0 97772.3
0.018973 0.107798 0.00727297 97756
0.0253913 0.106569 0.00860572 97772.3
0.0253913 0.106569 0.0146 97772.3
0.0203662 0.106757 0 97772.6
0.0203662 0.106757 0.0146 97772.6
0.038087 0.105722 0 97773
0.0316575 0.106848 0.00726871 97756.2
0.038087 0.105722 0.00763694 97773
0.038087 0.105722 0.0146 97773
0.0324122 0.106104 0 97773.8
0.0324122 0.106104 0.0146 97773.8
0.0507826 0.104536 0 97772.9
0.0507826 0.104536 0.00628023 97772.9
0.044473 0.10502 0.00731464 97758.3
0.0507826 0.104536 0.0146 97772.9
0.0441834 0.105175 0 97774.5
0.0441834 0.105175 0.0146 97774.5
0.0634783 0.103019 0 97771.6
0.0634783 0.103019 0.00454413 97771.6
0.057389 0.102931 0.00739913 97766.2
0.0634783 0.103019 0.0146 97771.6
0.055722 0.104012 0 97774.1
0.055722 0.104012 0.0146 97774.1
0.0761739 0.101111 0 97768.8
0.0761739 0.101111 0.00236157 97768.8
0.0745852 0.100644 0.00182702 97767.5
0.0745852 0.100644 0.012773 97767.5
0.0761739 0.101111 0.0146 97768.8
0.067027 0.102614 0 97772.3
0.0660277 0.101609 0.00293183 97769.6
0.0660277 0.101609 0.0116682 97769.6
0.067027 0.102614 0.0146 97772.3
0.0780193 0.100902 0 97769
0.0773362 0.100215 0.00133668 97768.5
0.0780193 0.100902 0.0146 97769
0.0773362 0.100215 0.0132633 97768.5
0.292 0.100236 0 97735.8
0.292 0.100236 0.00136056 97735.8
0.291424 0.0996262 0.000662934 97735.8
0.291424 0.0996262 0.0139371 97735.8
0.292 0.100236 0.0146 97735.8
0.31 0.0599584 0 97716.4
0.309463 0.0596191 0.00130624 97716.9
0.309463 0.0596191 0.0132938 97716.9
0.31 0.0599584 0.013682 97716.4
0.31 0.0599584 0.0146 97716.4
0.306216 0.0540825 0.00718658 97714.8
0.306454 0.047999 0 97701.2
0.306454 0.047999 0.00597164 97701.2
0.306454 0.047999 0.0146 97701.2
0.310114 0.0605175 0.0143216 97715.3
0.3104 0.0607609 0.0146 97714.7
0.310114 0.0605175 0.000278431 97715.3
0.3104 0.0607609 0.000973346 97714.7
0.3104 0.0607609 0 97714.7
0.315999 0.0695591 0 97712
0.314415 0.0641309 0.0073 97695.6
0.315999 0.0695591 0.0100654 97712
0.315999 0.0695591 0.0146 97712
0.298 0.105521 0 97730.9
0.298 0.105521 0.00740666 97730.9
0.296321 0.102618 0.0073 97735.4
0.298 0.105521 0.0146 97730.9
0.292869 0.100894 0 97735.6
0.292519 0.10015 0.00126198 97736.8
0.292519 0.10015 0.013338 97736.8
0.292869 0.100894 0.0146 97735.6
0.304 0.111231 0 97728
0.303713 0.111199 0.0139029 97728.5
0.303713 0.111199 0.000697065 97728.5
0.304 0.111231 0.0139395 97728
0.304 0.111231 0.0146 97728
0.29968 0.108235 0.0073 97731
0.303553 0.110857 0 97728.4
0.303553 0.110857 0.0146 97728.4
0.304115 0.111563 0.0143191 97728
0.304115 0.111563 0.000280946 97728
0.304518 0.111809 0.0146 97727.9
0.304518 0.111809 0.00126092 97727.9
0.304518 0.111809 0 97727.9
0.31 0.117214 0 97726.1
0.31 0.117214 0.00618422 97726.1
0.308782 0.114398 0.00296179 97727.9
0.308782 0.114398 0.0116382 97727.9
0.31 0.117214 0.0146 97726.1
0.311942 0.12044 0.0073 97728.3
0.314755 0.124571 0.0146 97719.7
0.314755 0.124571 0.011572 97719.7
0.314755 0.124571 0 97719.7
0.315999 0.127664 0 97718.4
0.315999 0.127664 0.00353862 97718.4
0.315606 0.125408 0.000957617 97718.5
0.315606 0.125408 0.0136424 97718.5
0.315999 0.127664 0.0146 97718.4
0.317638 0.0720405 0.0129042 97714.2
0.319857 0.0735228 0.0146 97714.9
0.317638 0.0720405 0.00169579 97714.2
0.319857 0.0735228 0.00399332 97714.9
0.319857 0.0735228 0 97714.9
0.328114 0.0844834 0.00206075 97722.2
0.324354 0.0787262 0.0073 97722.4
0.328114 0.0844834 0.0125393 97722.2
0.32914 0.0862847 0.0146 97722.2
0.32914 0.0862847 0.0136013 97722.2
0.32914 0.0862847 0 97722.2
0.327408 0.0838444 0 97720.2
0.327408 0.0838444 0.0146 97720.2
0.330105 0.0876472 0 97721.8
0.329711 0.086641 0.000407546 97721.9
0.330105 0.0876472 0.00155872 97721.8
0.329711 0.086641 0.0141925 97721.9
0.330105 0.0876472 0.0146 97721.8
0.333979 0.0955416 0.0073 97722.4
0.337258 0.0990467 0.0146 97720.6
0.337258 0.0990467 0.00740394 97720.6
0.337258 0.0990467 0 97720.6
0.343823 0.111458 0.000400872 97719.8
0.340292 0.102591 0.0073 97719.9
0.343823 0.111458 0.0141991 97719.8
0.343841 0.111809 0.0146 97719.7
0.343841 0.111809 0.0142179 97719.7
0.343841 0.111809 0 97719.7
0.3436 0.111257 0 97719.8
0.3436 0.111257 0.0146 97719.8
0.34421 0.112769 0 97719.8
0.344047 0.111956 0.000169059 97719.7
0.34421 0.112769 0.00109897 97719.8
0.344047 0.111956 0.0144309 97719.7
0.34421 0.112769 0.0146 97719.8
0.346663 0.122351 0.0120611 97721.2
0.348268 0.124571 0.0146 97720.6
0.346663 0.122351 0.00253892 97721.2
0.348268 0.124571 0.00420003 97720.6
0.348268 0.124571 0 97720.6
0.319543 0.134126 0.0073 97715.4
0.322894 0.137332 0.0146 97715.6
0.322894 0.137332 0.00713597 97715.6
0.322894 0.137332 0 97715.6
0.348308 0.130896 0.00727876 97722.9
0.34875 0.137332 0.0146 97719.4
0.34875 0.137332 0.00469903 97719.4
0.34875 0.137332 0 97719.4
0.348532 0.128481 0 97720.6
0.348532 0.128481 0.0146 97720.6
0.328098 0.148279 0.00207695 97716.1
0.328098 0.148279 0.0125231 97716.1
0.324795 0.142136 0.0073 97719.1
0.329036 0.150094 0.0146 97714.5
0.329036 0.150094 0.0134937 97714.5
0.329036 0.150094 0 97714.5
0.32841 0.148561 0 97714.6
0.32841 0.148561 0.0146 97714.6
0.347481 0.147135 0.0112143 97718.6
0.348373 0.150094 0.0146 97716.2
0.347481 0.147135 0.00338567 97718.6
0.348373 0.150094 0.0043086 97716.2
0.348373 0.150094 0 97716.2
0.347819 0.140597 0.0073 97720.7
0.348957 0.141627 0 97718.6
0.348957 0.141627 0.0146 97718.6
0.330105 0.152421 0 97714.4
0.330105 0.152421 0.00266173 97714.4
0.329634 0.15052 0.000487093 97714.4
0.329634 0.15052 0.0141129 97714.4
0.330105 0.152421 0.0146 97714.4
0.332597 0.160601 0.0120204 97713.6
0.332597 0.160601 0.00257963 97713.6
0.336136 0.162856 0.0146 97715.2
0.336136 0.162856 0.0062427 97715.2
0.336136 0.162856 0 97715.2
0.350035 0.156266 0.00722009 97715.2
0.355956 0.162856 0.0146 97717.9
0.355956 0.162856 0.0121583 97717.9
0.355956 0.162856 0 97717.9
0.354907 0.159773 0 97717.5
0.354907 0.159773 0.0146 97717.5
0.334347 0.17178 0.0102091 97718.6
0.334347 0.17178 0.00439095 97718.6
0.335051 0.175618 0.0146 97720.5
0.335051 0.175618 0.00511949 97720.5
0.335051 0.175618 0 97720.5
0.334128 0.166496 0.00416445 97717.1
0.334648 0.166967 0 97718.1
0.334128 0.166496 0.0104356 97717.1
0.334648 0.166967 0.0146 97718.1
0.358315 0.164387 0 97719.7
0.357734 0.163382 0.000601814 97718.2
0.358315 0.164387 0.00175155 97719.7
0.357734 0.163382 0.0139982 97718.2
0.358315 0.164387 0.0146 97719.7
0.364069 0.170413 0.0073 97723.3
0.367354 0.175618 0.0146 97727.4
0.367354 0.175618 0.00935594 97727.4
0.367354 0.175618 0 97727.4
0.332683 0.186048 0.0119318 97723.7
0.332683 0.186048 0.00266821 97723.7
0.334244 0.18838 0.0146 97727.3
0.334244 0.18838 0.004284 97727.3
0.334244 0.18838 0 97727.3
0.333002 0.17824 0.00299915 97721.1
0.334823 0.179888 0 97725
0.333002 0.17824 0.0116008 97721.1
0.334823 0.179888 0.0146 97725
0.370453 0.1866 0.00203664 97734.5
0.37013 0.177691 0.00237089 97731.3
0.370453 0.1866 0.0125634 97734.5
0.37013 0.177691 0.0122291 97731.3
0.368285 0.18838 0.0146 97735.3
0.368285 0.18838 0.0103192 97735.3
0.368285 0.18838 0 97735.3
0.368037 0.184414 0 97730.9
0.368037 0.184414 0.0146 97730.9
0.34421 0.200753 0 97737
0.343894 0.200856 0.0142728 97736.9
0.343894 0.200856 0.000327234 97736.9
0.34421 0.200753 0.0141553 97737
0.34421 0.200753 0.0146 97737
0.334012 0.197607 0.0073 97731.1
0.332805 0.190823 0.00279467 97728.1
0.332805 0.190823 0.0118053 97728.1
0.358315 0.198267 0 97737.7
0.357052 0.199999 0.0132921 97739
0.357052 0.199999 0.00130785 97739
0.358315 0.198267 0.0113105 97737.7
0.358315 0.198267 0.0146 97737.7
0.344381 0.200987 0.0144229 97737.3
0.344381 0.200987 0.000177131 97737.3
0.355266 0.198384 0 97736.3
0.355266 0.198384 0.0146 97736.3
0.365698 0.195312 0.00705193 97742.2
0.364894 0.194332 0 97735.1
0.364894 0.194332 0.0146 97735.1
