# U  POINT_DATA 392
# x y z  U_x U_y U_z
0.20313 0.0715894 0 0.89263 -0.14409 0
0.20204 0.0724264 0.0133457 0.891808 -0.15877 0
0.20204 0.0724264 0.0012543 0.891808 -0.15877 0
0.20313 0.0715894 0.0123881 0.89263 -0.14409 0
0.20313 0.0715894 0.0146 0.89263 -0.14409 0
0.19332 0.0735228 0.0146 0.840082 -0.215438 0
0.19332 0.0735228 0.00331787 0.840082 -0.215438 0
0.19332 0.0735228 0 0.840082 -0.215438 0
0.201354 0.0717375 0 0.885751 -0.153837 0
0.201354 0.0717375 0.0146 0.885751 -0.153837 0
0.215826 0.070508 0 0.923907 -0.0197266 0
0.213939 0.0716254 0.0124293 0.928559 -0.053124 0
0.213939 0.0716254 0.00217066 0.928559 -0.053124 0
0.215826 0.070508 0.011151 0.923907 -0.0197266 0
0.215826 0.070508 0.0146 0.923907 -0.0197266 0
0.204447 0.0721989 0.0130854 0.902126 -0.145885 0
0.204447 0.0721989 0.00151458 0.902126 -0.145885 0
0.212982 0.0706644 0 0.91728 -0.0407838 0
0.212982 0.0706644 0.0146 0.91728 -0.0407838 0
0.228522 0.0709106 0 0.913272 0.122155 0
0.226672 0.0716632 0.0124726 0.922132 0.0815423 0
0.226672 0.0716632 0.00212742 0.922132 0.0815423 0
0.228522 0.0709106 0.0116116 0.913272 0.122155 0
0.228522 0.0709106 0.0146 0.913272 0.122155 0
0.217904 0.0714346 0.012211 0.933205 -0.0232613 0
0.217904 0.0714346 0.00238903 0.933205 -0.0232613 0
0.22589 0.0708774 0 0.912659 0.0970881 0
0.22589 0.0708774 0.0146 0.912659 0.0970881 0
0.241217 0.0733039 0 0.891411 0.269085 0
0.24106 0.0733649 0.0144194 0.892163 0.265742 0
0.24106 0.0733649 0.00018064 0.892163 0.265742 0
0.241217 0.0733039 0.0143496 0.891411 0.269085 0
0.241217 0.0733039 0.0146 0.891411 0.269085 0
0.230093 0.0719436 0.0127933 0.916248 0.124518 0
0.230093 0.0719436 0.00180667 0.916248 0.124518 0
0.24097 0.0732744 0 0.891749 0.266282 0
0.24097 0.0732744 0.0146 0.891749 0.266282 0
0.241323 0.073417 0.0144789 0.891534 0.269753 0
0.241323 0.073417 0.000121115 0.891534 0.269753 0
0.241834 0.0735228 0.0146 0.890736 0.276572 0
0.241834 0.0735228 0.000708645 0.890736 0.276572 0
0.241834 0.0735228 0 0.890736 0.276572 0
0.152348 0.0832362 0 0.629158 -0.351466 0
0.150701 0.0846297 0.0127066 0.620582 -0.36094 0
0.150701 0.0846297 0.00189339 0.620582 -0.36094 0
0.152348 0.0832362 0.0111124 0.629158 -0.351466 0
0.152348 0.0832362 0.0146 0.629158 -0.351466 0
0.141275 0.0862847 0.0146 0.573964 -0.37324 0
0.141275 0.0862847 0.0018666 0.573964 -0.37324 0
0.141275 0.0862847 0 0.573964 -0.37324 0
0.149715 0.0836386 0 0.616468 -0.354061 0
0.149715 0.0836386 0.0146 0.616468 -0.354061 0
0.165043 0.0802789 0 0.682278 -0.320596 0
0.161135 0.0823564 0.0073 0.663356 -0.341237 0
0.165043 0.0802789 0.00772915 0.682278 -0.320596 0
0.165043 0.0802789 0.0146 0.682278 -0.320596 0
0.155158 0.0834596 0.011368 0.64069 -0.354646 0
0.155158 0.0834596 0.003232 0.64069 -0.354646 0
0.160123 0.0813391 0 0.6581 -0.328121 0
0.160123 0.0813391 0.0146 0.6581 -0.328121 0
0.177739 0.0772423 0 0.730783 -0.286835 0
0.177739 0.0772423 0.00425522 0.730783 -0.286835 0
0.171805 0.077996 0.00745851 0.716515 -0.314874 0
0.177739 0.0772423 0.0146 0.730783 -0.286835 0
0.170574 0.0790817 0 0.684853 -0.303195 0
0.170574 0.0790817 0.0146 0.684853 -0.303195 0
0.190435 0.0741332 0 0.816178 -0.236732 0
0.190435 0.0741332 0.000698346 0.816178 -0.236732 0
0.189987 0.0739726 0.0005146 0.819881 -0.238108 0
0.189987 0.0739726 0.0140854 0.819881 -0.238108 0
0.190435 0.0741332 0.0146 0.816178 -0.236732 0
0.180884 0.0766839 0 0.734521 -0.281399 0
0.179847 0.0756415 0.00242384 0.761117 -0.282873 0
0.179847 0.0756415 0.0121762 0.761117 -0.282873 0
0.180884 0.0766839 0.0146 0.734521 -0.281399 0
0.190976 0.0740673 0 0.82089 -0.23117 0
0.190742 0.0738319 0.000353637 0.824784 -0.233272 0
0.190976 0.0740673 0.0146 0.82089 -0.23117 0
0.190742 0.0738319 0.0142464 0.824784 -0.233272 0
0.253913 0.0774467 0 0.878022 0.442143 0
0.253913 0.0774467 0.00448901 0.878022 0.442143 0
0.251953 0.075493 0.00225394 0.872917 0.409573 0
0.251953 0.075493 0.0123461 0.872917 0.409573 0
0.253913 0.0774467 0.0146 0.878022 0.442143 0
0.266609 0.0835402 0 0.85547 0.576319 0
0.266609 0.0835402 0.0114602 0.85547 0.576319 0
0.260081 0.0794301 0.00723108 0.866381 0.51023 0
0.266609 0.0835402 0.0146 0.85547 0.576319 0
0.261604 0.0812543 0 0.859176 0.515462 0
0.261604 0.0812543 0.0146 0.859176 0.515462 0
0.267754 0.0851333 0.0132827 0.855942 0.58839 0
0.267754 0.0851333 0.00131728 0.855942 0.58839 0
0.270569 0.0862847 0.0146 0.864642 0.612424 0
0.270569 0.0862847 0.00455399 0.864642 0.612424 0
0.270569 0.0862847 0 0.864642 0.612424 0
0.0888696 0.0986225 0 0.332804 -0.402464 0
0.0886462 0.0988221 0.0143431 0.331732 -0.403243 0
0.0886462 0.0988221 0.00025691 0.331732 -0.403243 0
0.0888696 0.0986225 0.0141147 0.332804 -0.402464 0
0.0888696 0.0986225 0.0146 0.332804 -0.402464 0
0.0867941 0.0990467 0.0146 0.323926 -0.402878 0
0.0867941 0.0990467 0.0122132 0.323926 -0.402878 0
0.0867941 0.0990467 0 0.323926 -0.402878 0
0.0884805 0.0986556 0 0.331214 -0.402387 0
0.0884805 0.0986556 0.0146 0.331214 -0.402387 0
0.101565 0.0959431 0 0.390485 -0.398449 0
0.0998162 0.0972886 0.0125887 0.381611 -0.403927 0
0.0998162 0.0972886 0.00201131 0.381611 -0.403927 0
0.101565 0.0959431 0.0110494 0.390485 -0.398449 0
0.101565 0.0959431 0.0146 0.390485 -0.398449 0
0.0891579 0.0987569 0.0142685 0.333814 -0.403338 0
0.0891579 0.0987569 0.000331538 0.333814 -0.403338 0
0.0988284 0.0962956 0 0.379022 -0.398303 0
0.0988284 0.0962956 0.0146 0.379022 -0.398303 0
0.114261 0.0932534 0 0.44356 -0.393787 0
0.110502 0.0952683 0.0073 0.42407 -0.402595 0
0.114261 0.0932534 0.00797236 0.44356 -0.393787 0
0.114261 0.0932534 0.0146 0.44356 -0.393787 0
0.104299 0.096299 0.0114566 0.399437 -0.403204 0
0.104299 0.096299 0.00314341 0.399437 -0.403204 0
0.109417 0.0941778 0 0.422746 -0.394822 0
0.109417 0.0941778 0.0146 0.422746 -0.394822 0
0.126957 0.0903062 0 0.499983 -0.390338 0
0.126957 0.0903062 0.0046007 0.499983 -0.390338 0
0.120931 0.0911975 0.00742336 0.467633 -0.392076 0
0.126957 0.0903062 0.0146 0.499983 -0.390338 0
0.119987 0.0920411 0 0.468054 -0.394956 0
0.119987 0.0920411 0.0146 0.468054 -0.394956 0
0.139652 0.0867741 0 0.565426 -0.377023 0
0.139652 0.0867741 0.000559844 0.565426 -0.377023 0
0.139268 0.0866709 0.000441769 0.563539 -0.37615 0
0.139268 0.0866709 0.0141582 0.563539 -0.37615 0
0.139652 0.0867741 0.0146 0.565426 -0.377023 0
0.130298 0.0896441 0 0.514434 -0.390766 0
0.12928 0.0886199 0.00267146 0.510133 -0.383574 0
0.12928 0.0886199 0.0119285 0.510133 -0.383574 0
0.130298 0.0896441 0.0146 0.514434 -0.390766 0
0.140082 0.0867165 0 0.566536 -0.375051 0
0.139888 0.0865218 0.000271228 0.567379 -0.375334 0
0.140082 0.0867165 0.0146 0.566536 -0.375051 0
0.139888 0.0865218 0.0143288 0.567379 -0.375334 0
0.279304 0.092224 0 0.880603 0.670978 0
0.279304 0.092224 0.0067947 0.880603 0.670978 0
0.276739 0.0888636 0.00295025 0.886921 0.666348 0
0.276739 0.0888636 0.0116498 0.886921 0.666348 0
0.279304 0.092224 0.0146 0.880603 0.670978 0
0.282552 0.0957824 0.0073 0.891537 0.695198 0
0.290202 0.0990467 0.0146 0.914443 0.7198 0
0.290202 0.0990467 0.012532 0.914443 0.7198 0
0.290202 0.0990467 0 0.914443 0.7198 0
0.0126957 0.107045 0 0.0461527 -0.401184 0
0.00632448 0.108161 0.00729105 0.0240569 -0.315385 0
0.0126957 0.107045 0.00914984 0.0461527 -0.401184 0
0.0126957 0.107045 0.0146 0.0461527 -0.401184 0
0 0.107186 0.0146 0 0 0
0 0.107186 0.00931112 0 0 0
0 0.107186 0 0 0 0
0.00800816 0.107097 0 0.0289305 -0.262107 0
0.00800816 0.107097 0.0146 0.0289305 -0.262107 0
0.0253913 0.106569 0 0.0887642 -0.401432 0
0.018973 0.107798 0.00727297 0.0664283 -0.405052 0
0.0253913 0.106569 0.00860572 0.0887642 -0.401432 0
0.0253913 0.106569 0.0146 0.0887642 -0.401432 0
0.0203662 0.106757 0 0.0712546 -0.401247 0
0.0203662 0.106757 0.0146 0.0712546 -0.401247 0
0.038087 0.105722 0 0.133857 -0.401657 0
0.0316575 0.106848 0.00726871 0.110636 -0.404355 0
0.038087 0.105722 0.00763694 0.133857 -0.401657 0
0.038087 0.105722 0.0146 0.133857 -0.401657 0
0.0324122 0.106104 0 0.113232 -0.401491 0
0.0324122 0.106104 0.0146 0.113232 -0.401491 0
0.0507826 0.104536 0 0.180393 -0.402699 0
0.0507826 0.104536 0.00628023 0.180393 -0.402699 0
0.044473 0.10502 0.00731464 0.156545 -0.402077 0
0.0507826 0.104536 0.0146 0.180393 -0.402699 0
0.0441834 0.105175 0 0.156062 -0.402575 0
0.0441834 0.105175 0.0146 0.156062 -0.402575 0
0.0634783 0.103019 0 0.227458 -0.404335 0
0.0634783 0.103019 0.00454413 0.227458 -0.404335 0
0.057389 0.102931 0.00739913 0.204808 -0.399994 0
0.0634783 0.103019 0.0146 0.227458 -0.404335 0
0.055722 0.104012 0 0.197826 -0.404595 0
0.055722 0.104012 0.0146 0.197826 -0.404595 0
0.0761739 0.101111 0 0.277145 -0.405156 0
0.0761739 0.101111 0.00236157 0.277145 -0.405156 0
0.0745852 0.100644 0.00182702 0.272149 -0.400851 0
0.0745852 0.100644 0.012773 0.272149 -0.400851 0
0.0761739 0.101111 0.0146 0.277145 -0.405156 0
0.067027 0.102614 0 0.239835 -0.406704 0
0.0660277 0.101609 0.00293183 0.23814 -0.399533 0
0.0660277 0.101609 0.0116682 0.23814 -0.399533 0
0.067027 0.102614 0.0146 0.239835 -0.406704 0
0.0780193 0.100902 0 0.283806 -0.407337 0
0.0773362 0.100215 0.00133668 0.283617 -0.401 0
0.0780193 0.100902 0.0146 0.283806 -0.407337 0
0.0773362 0.100215 0.0132633 0.283617 -0.401 0
0.292 0.100236 0 0.923757 0.723166 0
0.292 0.100236 0.00136056 0.923757 0.723166 0
0.291424 0.0996262 0.000662934 0.92052 0.728459 0
0.291424 0.0996262 0.0139371 0.92052 0.728459 0
0.292 0.100236 0.0146 0.923757 0.723166 0
0.31 0.0599584 0 0.363609 0.556218 0
0.309463 0.0596191 0.00130624 0.366505 0.635067 0
0.309463 0.0596191 0.0132938 0.366505 0.635067 0
0.31 0.0599584 0.013682 0.363609 0.556218 0
0.31 0.0599584 0.0146 0.363609 0.556218 0
0.306216 0.0540825 0.00718658 0.268738 0.694913 0
0.306454 0.047999 0 2.9126e-16 8.97809e-16 0
0.306454 0.047999 0.00597164 2.9126e-16 8.97809e-16 0
0.306454 0.047999 0.0146 0 0 0
0.310114 0.0605175 0.0143216 0.355985 0.571862 0
0.3104 0.0607609 0.0146 0.379193 0.573775 0
0.310114 0.0605175 0.000278431 0.355985 0.571862 0
0.3104 0.0607609 0.000973346 0.379193 0.573775 0
0.3104 0.0607609 0 0.379193 0.573775 0
0.315999 0.0695591 0 0.681699 0.608704 0
0.314415 0.0641309 0.0073 0.585196 0.545058 0
0.315999 0.0695591 0.0100654 0.681699 0.608704 0
0.315999 0.0695591 0.0146 0.681699 0.608704 0
0.298 0.105521 0 0.937593 0.727073 0
0.298 0.105521 0.00740666 0.937593 0.727073 0
0.296321 0.102618 0.0073 0.938074 0.73737 0
0.298 0.105521 0.0146 0.937593 0.727073 0
0.292869 0.100894 0 0.923737 0.727333 0
0.292519 0.10015 0.00126198 0.92434 0.730505 0
0.292519 0.10015 0.013338 0.92434 0.730505 0
0.292869 0.100894 0.0146 0.923737 0.727333 0
0.304 0.111231 0 0.957406 0.745982 0
0.303713 0.111199 0.0139029 0.9572 0.74592 0
0.303713 0.111199 0.000697065 0.9572 0.74592 0
0.304 0.111231 0.0139395 0.957406 0.745982 0
0.304 0.111231 0.0146 0.957406 0.745982 0
0.29968 0.108235 0.0073 0.944602 0.732067 0
0.303553 0.110857 0 0.956432 0.745485 0
0.303553 0.110857 0.0146 0.956432 0.745485 0
0.304115 0.111563 0.0143191 0.957677 0.746136 0
0.304115 0.111563 0.000280946 0.957677 0.746136 0
0.304518 0.111809 0.0146 0.958517 0.747484 0
0.304518 0.111809 0.00126092 0.958517 0.747484 0
0.304518 0.111809 0 0.958517 0.747484 0
0.31 0.117214 0 0.980854 0.756751 0
0.31 0.117214 0.00618422 0.980854 0.756751 0
0.308782 0.114398 0.00296179 0.969056 0.761678 0
0.308782 0.114398 0.0116382 0.969056 0.761678 0
0.31 0.117214 0.0146 0.980854 0.756751 0
0.311942 0.12044 0.0073 0.984729 0.770431 0
0.314755 0.124571 0.0146 0.983822 0.792802 0
0.314755 0.124571 0.011572 0.983822 0.792802 0
0.314755 0.124571 0 0.983822 0.792802 0
0.315999 0.127664 0 0.984171 0.811454 0
0.315999 0.127664 0.00353862 0.984171 0.811454 0
0.315606 0.125408 0.000957617 0.984793 0.800898 0
0.315606 0.125408 0.0136424 0.984793 0.800898 0
0.315999 0.127664 0.0146 0.984171 0.811454 0
0.317638 0.0720405 0.0129042 0.843499 0.738579 0
0.319857 0.0735228 0.0146 0.774447 0.686644 0
0.317638 0.0720405 0.00169579 0.843499 0.738579 0
0.319857 0.0735228 0.00399332 0.774447 0.686644 0
0.319857 0.0735228 0 0.774447 0.686644 0
0.328114 0.0844834 0.00206075 0.913078 0.727864 0
0.324354 0.0787262 0.0073 0.840227 0.713489 0
0.328114 0.0844834 0.0125393 0.913078 0.727864 0
0.32914 0.0862847 0.0146 0.914578 0.720049 0
0.32914 0.0862847 0.0136013 0.914578 0.720049 0
0.32914 0.0862847 0 0.914578 0.720049 0
0.327408 0.0838444 0 0.905009 0.722622 0
0.327408 0.0838444 0.0146 0.905009 0.722622 0
0.330105 0.0876472 0 0.91619 0.724336 0
0.329711 0.086641 0.000407546 0.914402 0.720351 0
0.330105 0.0876472 0.00155872 0.91619 0.724336 0
0.329711 0.086641 0.0141925 0.914402 0.720351 0
0.330105 0.0876472 0.0146 0.91619 0.724336 0
0.333979 0.0955416 0.0073 0.939816 0.776821 0
0.337258 0.0990467 0.0146 0.887487 0.721009 0
0.337258 0.0990467 0.00740394 0.887487 0.721009 0
0.337258 0.0990467 0 0.887487 0.721009 0
0.343823 0.111458 0.000400872 0.925825 0.79774 0
0.340292 0.102591 0.0073 0.893441 0.736477 0
0.343823 0.111458 0.0141991 0.925825 0.79774 0
0.343841 0.111809 0.0146 0.925562 0.798013 0
0.343841 0.111809 0.0142179 0.925562 0.798013 0
0.343841 0.111809 0 0.925562 0.798013 0
0.3436 0.111257 0 0.925703 0.79714 0
0.3436 0.111257 0.0146 0.925703 0.79714 0
0.34421 0.112769 0 0.92503 0.800981 0
0.344047 0.111956 0.000169059 0.925203 0.798375 0
0.34421 0.112769 0.00109897 0.92503 0.800981 0
0.344047 0.111956 0.0144309 0.925203 0.798375 0
0.34421 0.112769 0.0146 0.92503 0.800981 0
0.346663 0.122351 0.0120611 0.924711 0.834866 0
0.348268 0.124571 0.0146 0.899061 0.814014 0
0.346663 0.122351 0.00253892 0.924711 0.834866 0
0.348268 0.124571 0.00420003 0.899061 0.814014 0
0.348268 0.124571 0 0.899061 0.814014 0
0.319543 0.134126 0.0073 0.979427 0.845898 0
0.322894 0.137332 0.0146 0.969866 0.861211 0
0.322894 0.137332 0.00713597 0.969866 0.861211 0
0.322894 0.137332 0 0.969866 0.861211 0
0.348308 0.130896 0.00727876 0.917884 0.856354 0
0.34875 0.137332 0.0146 0.89896 0.867044 0
0.34875 0.137332 0.00469903 0.89896 0.867044 0
0.34875 0.137332 0 0.89896 0.867044 0
0.348532 0.128481 0 0.905958 0.837788 0
0.348532 0.128481 0.0146 0.905958 0.837788 0
0.328098 0.148279 0.00207695 0.943539 0.948535 0
0.328098 0.148279 0.0125231 0.943539 0.948535 0
0.324795 0.142136 0.0073 0.954774 0.924708 0
0.329036 0.150094 0.0146 0.943898 0.949062 0
0.329036 0.150094 0.0134937 0.943898 0.949062 0
0.329036 0.150094 0 0.943898 0.949062 0
0.32841 0.148561 0 0.944504 0.939087 0
0.32841 0.148561 0.0146 0.944504 0.939087 0
0.347481 0.147135 0.0112143 0.901522 0.926873 0
0.348373 0.150094 0.0146 0.888466 0.934562 0
0.347481 0.147135 0.00338567 0.901522 0.926873 0
0.348373 0.150094 0.0043086 0.888466 0.934562 0
0.348373 0.150094 0 0.888466 0.934562 0
0.347819 0.140597 0.0073 0.90942 0.894348 0
0.348957 0.141627 0 0.897365 0.891449 0
0.348957 0.141627 0.0146 0.897365 0.891449 0
0.330105 0.152421 0 0.934726 0.965775 0
0.330105 0.152421 0.00266173 0.934726 0.965775 0
0.329634 0.15052 0.000487093 0.939494 0.955956 0
0.329634 0.15052 0.0141129 0.939494 0.955956 0
0.330105 0.152421 0.0146 0.934726 0.965775 0
0.332597 0.160601 0.0120204 0.915929 1.00496 0
0.332597 0.160601 0.00257963 0.915929 1.00496 0
0.336136 0.162856 0.0146 0.902962 1.01197 0
0.336136 0.162856 0.0062427 0.902962 1.01197 0
0.336136 0.162856 0 0.902962 1.01197 0
0.350035 0.156266 0.00722009 0.879104 0.981244 0
0.355956 0.162856 0.0146 0.855454 0.982529 0
0.355956 0.162856 0.0121583 0.855454 0.982529 0
0.355956 0.162856 0 0.855454 0.982529 0
0.354907 0.159773 0 0.863097 0.97068 0
0.354907 0.159773 0.0146 0.863097 0.97068 0
0.334347 0.17178 0.0102091 0.877574 1.05323 0
0.334347 0.17178 0.00439095 0.877574 1.05323 0
0.335051 0.175618 0.0146 0.865941 1.0655 0
0.335051 0.175618 0.00511949 0.865941 1.0655 0
0.335051 0.175618 0 0.865941 1.0655 0
0.334128 0.166496 0.00416445 0.897793 1.02683 0
0.334648 0.166967 0 0.898799 1.02283 0
0.334128 0.166496 0.0104356 0.897793 1.02683 0
0.334648 0.166967 0.0146 0.898799 1.02283 0
0.358315 0.164387 0 0.849868 0.982232 0
0.357734 0.163382 0.000601814 0.850865 0.981468 0
0.358315 0.164387 0.00175155 0.849868 0.982232 0
0.357734 0.163382 0.0139982 0.850865 0.981468 0
0.358315 0.164387 0.0146 0.849868 0.982232 0
0.364069 0.170413 0.0073 0.841552 1.0079 0
0.367354 0.175618 0.0146 0.841842 0.986415 0
0.367354 0.175618 0.00935594 0.841842 0.986415 0
0.367354 0.175618 0 0.841842 0.986415 0
0.332683 0.186048 0.0119318 0.822852 1.08403 0
0.332683 0.186048 0.00266821 0.822852 1.08403 0
0.334244 0.18838 0.0146 0.817315 1.07926 0
0.334244 0.18838 0.004284 0.817315 1.07926 0
0.334244 0.18838 0 0.817315 1.07926 0
0.333002 0.17824 0.00299915 0.859434 1.07311 0
0.334823 0.179888 0 0.857858 1.06626 0
0.333002 0.17824 0.0116008 0.859434 1.07311 0
0.334823 0.179888 0.0146 0.857858 1.06626 0
0.370453 0.1866 0.00203664 0.887001 0.980127 0
0.37013 0.177691 0.00237089 0.84181 0.981108 0
0.370453 0.1866 0.0125634 0.887001 0.980127 0
0.37013 0.177691 0.0122291 0.84181 0.981108 0
0.368285 0.18838 0.0146 0.88552 0.980393 0
0.368285 0.18838 0.0103192 0.88552 0.980393 0
0.368285 0.18838 0 0.88552 0.980393 0
0.368037 0.184414 0 0.885037 0.984762 0
0.368037 0.184414 0.0146 0.885037 0.984762 0
0.34421 0.200753 0 0.814452 0.996763 0
0.343894 0.200856 0.0142728 0.813669 0.997853 0
0.343894 0.200856 0.000327234 0.813669 0.997853 0
0.34421 0.200753 0.0141553 0.814452 0.996763 0
0.34421 0.200753 0.0146 0.814452 0.996763 0
0.334012 0.197607 0.0073 0.781818 1.04278 0
0.332805 0.190823 0.00279467 0.810264 1.07813 0
0.332805 0.190823 0.0118053 0.810264 1.07813 0
0.358315 0.198267 0 0.849322 0.931103 0
0.357052 0.199999 0.0132921 0.847101 0.928145 0
0.357052 0.199999 0.00130785 0.847101 0.928145 0
0.358315 0.198267 0.0113105 0.849322 0.931103 0
0.358315 0.198267 0.0146 0.849322 0.931103 0
0.344381 0.200987 0.0144229 0.814358 0.995857 0
0.344381 0.200987 0.000177131 0.814358 0.995857 0
0.355266 0.198384 0 0.846296 0.937626 0
0.355266 0.198384 0.0146 0.846296 0.937626 0
0.365698 0.195312 0.00705193 0.856673 0.96403 0
0.364894 0.194332 0 0.831906 0.952437 0
0.364894 0.194332 0.0146 0.831906 0.952437 0
