# Moment      
# CofR        : (2.929541e+00 0.000000e+00 2.000000e-01)
#
# Time        	total_x total_y total_z	pressure_x pressure_y pressure_z	viscous_x viscous_y viscous_z
0.00119048     -1.646241e+02 -6.386487e-05 2.253644e+03 -1.646241e+02 -5.768576e-05 2.253644e+03 -5.077637e-07 -6.179113e-06 7.398237e-06
0.00262605     -1.645051e+02 2.376832e-03 2.251989e+03 -1.645051e+02 2.387249e-03 2.251989e+03 -1.044463e-06 -1.041711e-05 1.523539e-05
0.00431798     -1.644696e+02 -9.509528e-04 2.251546e+03 -1.644696e+02 -9.299456e-04 2.251546e+03 -1.490482e-06 -2.100725e-05 2.177542e-05
0.00630415     -1.644233e+02 -9.455744e-04 2.250911e+03 -1.644233e+02 -9.128457e-04 2.250911e+03 -2.001846e-06 -3.272864e-05 2.926302e-05
0.0087317      -1.643776e+02 -1.154278e-04 2.250280e+03 -1.643776e+02 -6.974121e-05 2.250280e+03 -2.754191e-06 -4.568655e-05 4.024350e-05
0.0116794      -1.643566e+02 -2.008358e-04 2.249999e+03 -1.643566e+02 -1.389091e-04 2.249999e+03 -3.791602e-06 -6.192669e-05 5.536006e-05
0.0151631      -1.643346e+02 -1.376893e-04 2.249703e+03 -1.643346e+02 -5.613119e-05 2.249703e+03 -4.544284e-06 -8.155808e-05 6.639273e-05
0.0190339      -1.643042e+02 -1.535170e-04 2.249295e+03 -1.643042e+02 -4.919731e-05 2.249295e+03 -5.627779e-06 -1.043197e-04 8.220156e-05
0.0234576      -1.642518e+02 -1.750914e-04 2.248589e+03 -1.642518e+02 -4.313906e-05 2.248589e+03 -6.494898e-06 -1.319523e-04 9.490499e-05
0.0278813      -1.641982e+02 -2.257059e-04 2.247871e+03 -1.641982e+02 -6.469190e-05 2.247871e+03 -7.749760e-06 -1.610140e-04 1.131586e-04
0.0315678      -1.641709e+02 -2.643496e-04 2.247514e+03 -1.641709e+02 -7.684910e-05 2.247514e+03 -7.937492e-06 -1.875005e-04 1.160114e-04
0.0352542      -1.641458e+02 -2.878893e-04 2.247187e+03 -1.641458e+02 -7.332066e-05 2.247186e+03 -8.248173e-06 -2.145686e-04 1.206340e-04
0.0382034      -1.641327e+02 -3.090117e-04 2.247025e+03 -1.641327e+02 -7.230726e-05 2.247025e+03 -8.834595e-06 -2.367045e-04 1.291652e-04
0.0411525      -1.641144e+02 -3.283812e-04 2.246789e+03 -1.641144e+02 -6.793542e-05 2.246789e+03 -9.053686e-06 -2.604458e-04 1.324287e-04
0.0441017      -1.641007e+02 -3.703703e-04 2.246618e+03 -1.641007e+02 -8.561809e-05 2.246618e+03 -9.461018e-06 -2.847522e-04 1.383852e-04
0.0470508      -1.640926e+02 -3.921923e-04 2.246523e+03 -1.640925e+02 -8.245834e-05 2.246523e+03 -1.008977e-05 -3.097340e-04 1.474970e-04
0.05           -1.640867e+02 -4.156598e-04 2.246461e+03 -1.640867e+02 -7.937663e-05 2.246460e+03 -1.036426e-05 -3.362831e-04 1.515381e-04
0.0525         -1.640785e+02 -4.129109e-04 2.246366e+03 -1.640785e+02 -5.357219e-05 2.246366e+03 -1.065716e-05 -3.593387e-04 1.558230e-04
0.055          -1.640734e+02 -4.972545e-04 2.246313e+03 -1.640734e+02 -1.143389e-04 2.246312e+03 -1.120113e-05 -3.829156e-04 1.636757e-04
0.0573684      -1.640719e+02 -4.805999e-04 2.246309e+03 -1.640719e+02 -7.417786e-05 2.246309e+03 -1.137267e-05 -4.064220e-04 1.662119e-04
0.0597368      -1.640682e+02 -5.093142e-04 2.246274e+03 -1.640682e+02 -7.897516e-05 2.246274e+03 -1.165972e-05 -4.303391e-04 1.703923e-04
0.0619737      -1.640653e+02 -5.463448e-04 2.246251e+03 -1.640653e+02 -9.296309e-05 2.246251e+03 -1.204887e-05 -4.533817e-04 1.760084e-04
0.0642105      -1.640641e+02 -5.736436e-04 2.246252e+03 -1.640641e+02 -9.617975e-05 2.246252e+03 -1.223953e-05 -4.774638e-04 1.788014e-04
0.0663158      -1.640655e+02 -5.911762e-04 2.246287e+03 -1.640655e+02 -9.067939e-05 2.246287e+03 -1.255047e-05 -5.004968e-04 1.832938e-04
0.0684211      -1.640652e+02 -6.192997e-04 2.246299e+03 -1.640652e+02 -9.525787e-05 2.246299e+03 -1.284002e-05 -5.240418e-04 1.874753e-04
0.0705263      -1.640647e+02 -6.444995e-04 2.246309e+03 -1.640647e+02 -9.613027e-05 2.246309e+03 -1.301879e-05 -5.483693e-04 1.900855e-04
0.0724912      -1.640675e+02 -6.774947e-04 2.246364e+03 -1.640675e+02 -1.060721e-04 2.246363e+03 -1.336462e-05 -5.714226e-04 1.950487e-04
0.0744561      -1.640696e+02 -7.044340e-04 2.246408e+03 -1.640696e+02 -1.092561e-04 2.246408e+03 -1.353281e-05 -5.951780e-04 1.974956e-04
0.0764211      -1.640703e+02 -7.096085e-04 2.246434e+03 -1.640703e+02 -9.024083e-05 2.246433e+03 -1.370303e-05 -6.193677e-04 1.999712e-04
0.078386       -1.640735e+02 -7.843006e-04 2.246494e+03 -1.640734e+02 -1.403829e-04 2.246494e+03 -1.414699e-05 -6.439177e-04 2.063003e-04
0.0801871      -1.640776e+02 -7.657730e-04 2.246567e+03 -1.640776e+02 -9.852420e-05 2.246566e+03 -1.411712e-05 -6.672488e-04 2.059413e-04
0.0819883      -1.640809e+02 -8.042949e-04 2.246627e+03 -1.640809e+02 -1.137142e-04 2.246627e+03 -1.426722e-05 -6.905807e-04 2.081185e-04
0.0837895      -1.640842e+02 -8.537478e-04 2.246687e+03 -1.640842e+02 -1.394332e-04 2.246687e+03 -1.449413e-05 -7.143146e-04 2.113705e-04
0.0855906      -1.640877e+02 -8.625871e-04 2.246751e+03 -1.640877e+02 -1.239337e-04 2.246751e+03 -1.455503e-05 -7.386534e-04 2.122893e-04
0.0873918      -1.640921e+02 -9.009058e-04 2.246827e+03 -1.640921e+02 -1.377603e-04 2.246827e+03 -1.479977e-05 -7.631455e-04 2.157868e-04
0.089193       -1.640972e+02 -9.395367e-04 2.246913e+03 -1.640972e+02 -1.512620e-04 2.246913e+03 -1.494583e-05 -7.882747e-04 2.178952e-04
0.0909942      -1.641007e+02 -9.410498e-04 2.246976e+03 -1.641007e+02 -1.271737e-04 2.246976e+03 -1.507039e-05 -8.138761e-04 2.197037e-04
0.0927953      -1.641057e+02 -1.004626e-03 2.247060e+03 -1.641056e+02 -1.649540e-04 2.247060e+03 -1.539126e-05 -8.396724e-04 2.242537e-04
0.0945965      -1.641121e+02 -1.043966e-03 2.247165e+03 -1.641121e+02 -1.777046e-04 2.247165e+03 -1.545209e-05 -8.662609e-04 2.251630e-04
0.0963977      -1.641163e+02 -1.051693e-03 2.247238e+03 -1.641163e+02 -1.586277e-04 2.247238e+03 -1.555649e-05 -8.930654e-04 2.266838e-04
0.0981988      -1.641214e+02 -1.101752e-03 2.247324e+03 -1.641214e+02 -1.817774e-04 2.247323e+03 -1.579932e-05 -9.199743e-04 2.301306e-04
0.1            -1.641286e+02 -1.162274e-03 2.247439e+03 -1.641286e+02 -2.146310e-04 2.247439e+03 -1.585788e-05 -9.476426e-04 2.310044e-04
0.101471       -1.641354e+02 -1.128013e-03 2.247546e+03 -1.641354e+02 -1.575423e-04 2.247546e+03 -1.588444e-05 -9.704703e-04 2.314248e-04
0.102898       -1.641416e+02 -1.267236e-03 2.247645e+03 -1.641416e+02 -2.744235e-04 2.247644e+03 -1.617227e-05 -9.928121e-04 2.354736e-04
0.104283       -1.641473e+02 -1.194687e-03 2.247734e+03 -1.641473e+02 -1.797039e-04 2.247734e+03 -1.608259e-05 -1.014983e-03 2.342746e-04
0.105628       -1.641527e+02 -1.280608e-03 2.247821e+03 -1.641527e+02 -2.442230e-04 2.247821e+03 -1.634339e-05 -1.036385e-03 2.379395e-04
0.106933       -1.641591e+02 -1.337846e-03 2.247920e+03 -1.641591e+02 -2.799896e-04 2.247920e+03 -1.621306e-05 -1.057857e-03 2.361759e-04
0.1082         -1.641640e+02 -1.298990e-03 2.247997e+03 -1.641640e+02 -2.204467e-04 2.247997e+03 -1.634600e-05 -1.078543e-03 2.380603e-04
0.109429       -1.641712e+02 -1.461029e-03 2.248107e+03 -1.641711e+02 -3.619970e-04 2.248107e+03 -1.635322e-05 -1.099032e-03 2.382032e-04
0.110622       -1.641750e+02 -1.335704e-03 2.248169e+03 -1.641750e+02 -2.168900e-04 2.248169e+03 -1.647324e-05 -1.118814e-03 2.399042e-04
0.11178        -1.641819e+02 -1.548331e-03 2.248275e+03 -1.641819e+02 -4.098019e-04 2.248275e+03 -1.643508e-05 -1.138529e-03 2.394185e-04
0.112905       -1.641871e+02 -1.479553e-03 2.248355e+03 -1.641870e+02 -3.220364e-04 2.248355e+03 -1.658508e-05 -1.157516e-03 2.415284e-04
0.113996       -1.641918e+02 -1.500082e-03 2.248429e+03 -1.641917e+02 -3.236718e-04 2.248429e+03 -1.644477e-05 -1.176411e-03 2.396330e-04
0.115055       -1.641983e+02 -1.703934e-03 2.248528e+03 -1.641982e+02 -5.091659e-04 2.248527e+03 -1.660442e-05 -1.194768e-03 2.418720e-04
0.116082       -1.642020e+02 -1.463244e-03 2.248587e+03 -1.642019e+02 -2.505810e-04 2.248586e+03 -1.643187e-05 -1.212663e-03 2.395314e-04
0.11708        -1.642082e+02 -1.816179e-03 2.248681e+03 -1.642082e+02 -5.859564e-04 2.248681e+03 -1.649218e-05 -1.230223e-03 2.404000e-04
0.118048       -1.642116e+02 -1.506802e-03 2.248736e+03 -1.642116e+02 -2.595195e-04 2.248736e+03 -1.638098e-05 -1.247283e-03 2.389050e-04
0.118988       -1.642173e+02 -1.973450e-03 2.248822e+03 -1.642173e+02 -7.093359e-04 2.248822e+03 -1.624746e-05 -1.264114e-03 2.371080e-04
0.1199         -1.642216e+02 -1.799907e-03 2.248888e+03 -1.642216e+02 -5.196094e-04 2.248887e+03 -1.624471e-05 -1.280298e-03 2.371017e-04
0.120785       -1.642255e+02 -1.859856e-03 2.248948e+03 -1.642255e+02 -5.635443e-04 2.248948e+03 -1.594087e-05 -1.296312e-03 2.329686e-04
0.121645       -1.642307e+02 -2.202690e-03 2.249027e+03 -1.642307e+02 -8.906585e-04 2.249027e+03 -1.579070e-05 -1.312032e-03 2.309438e-04
0.122432       -1.642327e+02 -1.648074e-03 2.249061e+03 -1.642327e+02 -3.217544e-04 2.249060e+03 -1.580637e-05 -1.326319e-03 2.311813e-04
0.123158       -1.642434e+02 -4.201417e-03 2.249215e+03 -1.642434e+02 -2.860379e-03 2.249214e+03 -1.399987e-05 -1.341038e-03 2.064139e-04
0.123754       -1.642606e+02 -8.856960e-03 2.249456e+03 -1.642606e+02 -7.504475e-03 2.249456e+03 -1.091926e-05 -1.352485e-03 1.641476e-04
0.124279       -1.642771e+02 -1.500662e-02 2.249686e+03 -1.642771e+02 -1.364484e-02 2.249686e+03 -7.371853e-06 -1.361779e-03 1.154525e-04
0.124764       -1.642970e+02 -2.438350e-02 2.249964e+03 -1.642970e+02 -2.301459e-02 2.249964e+03 -3.214944e-06 -1.368905e-03 5.838249e-05
0.125215       -1.643132e+02 -3.234962e-02 2.250190e+03 -1.643132e+02 -3.097538e-02 2.250190e+03 8.035311e-07 -1.374243e-03 3.184166e-06
0.125642       -1.643295e+02 -4.157571e-02 2.250417e+03 -1.643295e+02 -4.019783e-02 2.250417e+03 4.732262e-06 -1.377882e-03 -5.079555e-05
0.126048       -1.643551e+02 -5.788936e-02 2.250772e+03 -1.643551e+02 -5.650910e-02 2.250772e+03 9.228565e-06 -1.380256e-03 -1.125852e-04
0.126441       -1.643755e+02 -6.980613e-02 2.251057e+03 -1.643756e+02 -6.842409e-02 2.251057e+03 1.394253e-05 -1.382040e-03 -1.773999e-04
0.126827       -1.643979e+02 -8.736826e-02 2.251367e+03 -1.643980e+02 -8.598614e-02 2.251368e+03 1.915128e-05 -1.382129e-03 -2.489814e-04
0.127207       -1.644231e+02 -1.071728e-01 2.251716e+03 -1.644231e+02 -1.057909e-01 2.251716e+03 2.479810e-05 -1.381891e-03 -3.266381e-04
0.127581       -1.644485e+02 -1.318419e-01 2.252068e+03 -1.644485e+02 -1.304622e-01 2.252068e+03 3.106079e-05 -1.379724e-03 -4.126983e-04
0.127954       -1.644662e+02 -1.470665e-01 2.252314e+03 -1.644662e+02 -1.456889e-01 2.252315e+03 3.735357e-05 -1.377617e-03 -4.992399e-04
0.128322       -1.644830e+02 -1.695386e-01 2.252549e+03 -1.644831e+02 -1.681651e-01 2.252550e+03 4.402590e-05 -1.373452e-03 -5.908575e-04
0.128689       -1.644841e+02 -1.621372e-01 2.252568e+03 -1.644842e+02 -1.607670e-01 2.252568e+03 5.022137e-05 -1.370171e-03 -6.759805e-04
0.129063       -1.644954e+02 -1.750980e-01 2.252726e+03 -1.644955e+02 -1.737314e-01 2.252727e+03 5.652984e-05 -1.366608e-03 -7.626402e-04
0.129437       -1.645052e+02 -1.775602e-01 2.252864e+03 -1.645053e+02 -1.761977e-01 2.252865e+03 6.278434e-05 -1.362576e-03 -8.485117e-04
0.129825       -1.645231e+02 -1.973294e-01 2.253113e+03 -1.645231e+02 -1.959704e-01 2.253114e+03 6.946711e-05 -1.359094e-03 -9.403478e-04
0.130213       -1.645394e+02 -2.069798e-01 2.253342e+03 -1.645395e+02 -2.056253e-01 2.253343e+03 7.633531e-05 -1.354422e-03 -1.034618e-03
0.130609       -1.645483e+02 -2.093011e-01 2.253468e+03 -1.645484e+02 -2.079509e-01 2.253469e+03 8.317467e-05 -1.350163e-03 -1.128534e-03
0.131013       -1.645700e+02 -2.308511e-01 2.253770e+03 -1.645701e+02 -2.295052e-01 2.253772e+03 9.038406e-05 -1.345873e-03 -1.227557e-03
0.131417       -1.645773e+02 -2.294414e-01 2.253874e+03 -1.645774e+02 -2.280999e-01 2.253875e+03 9.770375e-05 -1.341582e-03 -1.328071e-03
0.131821       -1.645949e+02 -2.491595e-01 2.254119e+03 -1.645950e+02 -2.478223e-01 2.254121e+03 1.053257e-04 -1.337210e-03 -1.432729e-03
0.132234       -1.645986e+02 -2.408004e-01 2.254175e+03 -1.645987e+02 -2.394669e-01 2.254176e+03 1.130798e-04 -1.333498e-03 -1.539274e-03
0.132647       -1.646152e+02 -2.621212e-01 2.254407e+03 -1.646153e+02 -2.607920e-01 2.254408e+03 1.211079e-04 -1.329211e-03 -1.649507e-03
0.13306        -1.646199e+02 -2.522480e-01 2.254476e+03 -1.646200e+02 -2.509227e-01 2.254478e+03 1.291698e-04 -1.325387e-03 -1.760235e-03
0.133473       -1.646392e+02 -2.775466e-01 2.254745e+03 -1.646394e+02 -2.762253e-01 2.254747e+03 1.373902e-04 -1.321281e-03 -1.873127e-03
0.133887       -1.646458e+02 -2.702841e-01 2.254840e+03 -1.646459e+02 -2.689665e-01 2.254842e+03 1.456153e-04 -1.317611e-03 -1.986133e-03
0.1343         -1.646651e+02 -2.934259e-01 2.255109e+03 -1.646652e+02 -2.921125e-01 2.255111e+03 1.540817e-04 -1.313382e-03 -2.102376e-03
0.134713       -1.646746e+02 -2.929857e-01 2.255245e+03 -1.646748e+02 -2.916764e-01 2.255247e+03 1.625350e-04 -1.309320e-03 -2.218463e-03
0.135137       -1.646873e+02 -3.077805e-01 2.255423e+03 -1.646875e+02 -3.064754e-01 2.255425e+03 1.713770e-04 -1.305065e-03 -2.339880e-03
0.135562       -1.647004e+02 -3.131159e-01 2.255607e+03 -1.647005e+02 -3.118149e-01 2.255609e+03 1.802139e-04 -1.300972e-03 -2.461261e-03
0.136          -1.647116e+02 -3.252181e-01 2.255765e+03 -1.647118e+02 -3.239217e-01 2.255767e+03 1.895551e-04 -1.296405e-03 -2.589497e-03
0.136451       -1.647234e+02 -3.317927e-01 2.255931e+03 -1.647236e+02 -3.305008e-01 2.255934e+03 1.991322e-04 -1.291842e-03 -2.720997e-03
0.136918       -1.647357e+02 -3.451457e-01 2.256104e+03 -1.647359e+02 -3.438588e-01 2.256107e+03 2.092309e-04 -1.286828e-03 -2.859605e-03
0.137386       -1.647484e+02 -3.502633e-01 2.256284e+03 -1.647486e+02 -3.489812e-01 2.256287e+03 2.192900e-04 -1.282072e-03 -2.997714e-03
0.137853       -1.647609e+02 -3.626693e-01 2.256460e+03 -1.647611e+02 -3.613921e-01 2.256464e+03 2.292692e-04 -1.277145e-03 -3.134707e-03
0.138339       -1.647716e+02 -3.705651e-01 2.256612e+03 -1.647718e+02 -3.692958e-01 2.256615e+03 2.297392e-04 -1.269222e-03 -3.140852e-03
0.138846       -1.647818e+02 -3.773553e-01 2.256757e+03 -1.647820e+02 -3.760950e-01 2.256760e+03 2.273960e-04 -1.260321e-03 -3.108279e-03
0.139353       -1.647996e+02 -3.921645e-01 2.257008e+03 -1.647999e+02 -3.909132e-01 2.257011e+03 2.259532e-04 -1.251293e-03 -3.087971e-03
0.13986        -1.648151e+02 -4.017654e-01 2.257225e+03 -1.648153e+02 -4.005229e-01 2.257228e+03 2.245418e-04 -1.242464e-03 -3.068119e-03
0.140393       -1.648239e+02 -4.094876e-01 2.257351e+03 -1.648242e+02 -4.082538e-01 2.257354e+03 2.221693e-04 -1.233758e-03 -3.035214e-03
0.140927       -1.648372e+02 -4.196378e-01 2.257539e+03 -1.648374e+02 -4.184123e-01 2.257542e+03 2.183897e-04 -1.225536e-03 -2.983147e-03
0.141461       -1.648493e+02 -4.334964e-01 2.257711e+03 -1.648495e+02 -4.322789e-01 2.257714e+03 2.136462e-04 -1.217554e-03 -2.917940e-03
0.141995       -1.648589e+02 -4.383224e-01 2.257849e+03 -1.648591e+02 -4.371125e-01 2.257851e+03 2.083337e-04 -1.209890e-03 -2.844992e-03
0.142528       -1.648751e+02 -4.519546e-01 2.258077e+03 -1.648753e+02 -4.507519e-01 2.258080e+03 2.030398e-04 -1.202775e-03 -2.772418e-03
0.143062       -1.648859e+02 -4.532841e-01 2.258232e+03 -1.648861e+02 -4.520880e-01 2.258234e+03 1.978526e-04 -1.196052e-03 -2.701392e-03
0.143596       -1.648985e+02 -4.620774e-01 2.258410e+03 -1.648987e+02 -4.608877e-01 2.258413e+03 1.927187e-04 -1.189684e-03 -2.631166e-03
0.144129       -1.649134e+02 -4.719352e-01 2.258620e+03 -1.649135e+02 -4.707519e-01 2.258623e+03 1.879752e-04 -1.183380e-03 -2.566298e-03
0.144663       -1.649204e+02 -4.748306e-01 2.258723e+03 -1.649206e+02 -4.736536e-01 2.258726e+03 1.834608e-04 -1.177081e-03 -2.504561e-03
0.145197       -1.649361e+02 -4.899628e-01 2.258944e+03 -1.649363e+02 -4.887919e-01 2.258946e+03 1.789378e-04 -1.170900e-03 -2.442740e-03
0.14573        -1.649438e+02 -4.907071e-01 2.259056e+03 -1.649440e+02 -4.895424e-01 2.259059e+03 1.747379e-04 -1.164623e-03 -2.385304e-03
0.146264       -1.649559e+02 -4.982257e-01 2.259229e+03 -1.649561e+02 -4.970673e-01 2.259231e+03 1.706741e-04 -1.158391e-03 -2.329731e-03
0.146798       -1.649653e+02 -4.994334e-01 2.259364e+03 -1.649655e+02 -4.982813e-01 2.259367e+03 1.670219e-04 -1.152072e-03 -2.279755e-03
0.147332       -1.649744e+02 -5.034072e-01 2.259494e+03 -1.649745e+02 -5.022614e-01 2.259497e+03 1.635692e-04 -1.145750e-03 -2.232503e-03
0.147865       -1.649859e+02 -5.075680e-01 2.259659e+03 -1.649860e+02 -5.064285e-01 2.259661e+03 1.602887e-04 -1.139462e-03 -2.187603e-03
0.148399       -1.649922e+02 -5.089888e-01 2.259752e+03 -1.649924e+02 -5.078556e-01 2.259754e+03 1.572276e-04 -1.133130e-03 -2.145689e-03
0.148933       -1.650048e+02 -5.148052e-01 2.259931e+03 -1.650049e+02 -5.136784e-01 2.259933e+03 1.543173e-04 -1.126825e-03 -2.105845e-03
0.149466       -1.650105e+02 -5.144652e-01 2.260016e+03 -1.650107e+02 -5.133446e-01 2.260018e+03 1.516175e-04 -1.120544e-03 -2.068872e-03
0.15           -1.650166e+02 -5.144843e-01 2.260104e+03 -1.650167e+02 -5.133700e-01 2.260106e+03 1.490675e-04 -1.114342e-03 -2.033950e-03
0.150595       -1.650213e+02 -5.148365e-01 2.260175e+03 -1.650215e+02 -5.137290e-01 2.260177e+03 1.464311e-04 -1.107430e-03 -1.997827e-03
0.151198       -1.650301e+02 -5.156229e-01 2.260302e+03 -1.650302e+02 -5.145224e-01 2.260304e+03 1.439336e-04 -1.100503e-03 -1.963605e-03
0.151808       -1.650366e+02 -5.150077e-01 2.260398e+03 -1.650367e+02 -5.139141e-01 2.260400e+03 1.415919e-04 -1.093611e-03 -1.931522e-03
0.152434       -1.650373e+02 -5.129095e-01 2.260412e+03 -1.650374e+02 -5.118229e-01 2.260414e+03 1.393511e-04 -1.086645e-03 -1.900822e-03
0.153068       -1.650354e+02 -5.088380e-01 2.260391e+03 -1.650356e+02 -5.077582e-01 2.260393e+03 1.372022e-04 -1.079790e-03 -1.871383e-03
0.153711       -1.650358e+02 -5.060112e-01 2.260401e+03 -1.650360e+02 -5.049383e-01 2.260403e+03 1.351716e-04 -1.072967e-03 -1.843565e-03
0.154363       -1.650412e+02 -5.047856e-01 2.260482e+03 -1.650414e+02 -5.037194e-01 2.260484e+03 1.332531e-04 -1.066169e-03 -1.817289e-03
0.155024       -1.650470e+02 -5.050338e-01 2.260567e+03 -1.650471e+02 -5.039745e-01 2.260569e+03 1.314619e-04 -1.059335e-03 -1.792761e-03
0.155695       -1.650529e+02 -5.064542e-01 2.260655e+03 -1.650530e+02 -5.054018e-01 2.260657e+03 1.298086e-04 -1.052400e-03 -1.770124e-03
0.156377       -1.650589e+02 -5.067758e-01 2.260743e+03 -1.650590e+02 -5.057303e-01 2.260744e+03 1.282339e-04 -1.045510e-03 -1.748576e-03
0.157069       -1.650656e+02 -5.075024e-01 2.260841e+03 -1.650657e+02 -5.064638e-01 2.260843e+03 1.267630e-04 -1.038562e-03 -1.728452e-03
0.157773       -1.650712e+02 -5.076097e-01 2.260924e+03 -1.650713e+02 -5.065781e-01 2.260926e+03 1.253696e-04 -1.031564e-03 -1.709394e-03
0.158477       -1.650730e+02 -5.072886e-01 2.260954e+03 -1.650732e+02 -5.062640e-01 2.260955e+03 1.240761e-04 -1.024626e-03 -1.691708e-03
0.159193       -1.650710e+02 -5.069944e-01 2.260931e+03 -1.650712e+02 -5.059769e-01 2.260933e+03 1.228725e-04 -1.017557e-03 -1.675254e-03
0.159922       -1.650707e+02 -5.056917e-01 2.260931e+03 -1.650708e+02 -5.046812e-01 2.260933e+03 1.216609e-04 -1.010555e-03 -1.658694e-03
0.16065        -1.650717e+02 -5.041093e-01 2.260948e+03 -1.650718e+02 -5.031056e-01 2.260949e+03 1.205222e-04 -1.003676e-03 -1.643139e-03
0.161393       -1.650701e+02 -5.022441e-01 2.260928e+03 -1.650702e+02 -5.012473e-01 2.260930e+03 1.194020e-04 -9.968257e-04 -1.627861e-03
0.162135       -1.650650e+02 -5.007262e-01 2.260864e+03 -1.650652e+02 -4.997361e-01 2.260865e+03 1.183632e-04 -9.901064e-04 -1.613727e-03
0.162893       -1.650600e+02 -4.988667e-01 2.260797e+03 -1.650601e+02 -4.978831e-01 2.260799e+03 1.173337e-04 -9.835973e-04 -1.599773e-03
0.16365        -1.650564e+02 -4.962513e-01 2.260750e+03 -1.650565e+02 -4.952740e-01 2.260751e+03 1.163523e-04 -9.773289e-04 -1.586501e-03
0.164423       -1.650526e+02 -4.938869e-01 2.260699e+03 -1.650527e+02 -4.929159e-01 2.260701e+03 1.153717e-04 -9.709736e-04 -1.573234e-03
0.165197       -1.650414e+02 -4.913647e-01 2.260546e+03 -1.650415e+02 -4.904002e-01 2.260548e+03 1.144284e-04 -9.645259e-04 -1.560452e-03
0.16597        -1.650365e+02 -4.891659e-01 2.260482e+03 -1.650366e+02 -4.882077e-01 2.260483e+03 1.134603e-04 -9.582005e-04 -1.547317e-03
0.166743       -1.650309e+02 -4.868940e-01 2.260405e+03 -1.650310e+02 -4.859421e-01 2.260407e+03 1.125203e-04 -9.518894e-04 -1.534547e-03
0.167517       -1.650213e+02 -4.848325e-01 2.260276e+03 -1.650214e+02 -4.838870e-01 2.260277e+03 1.116188e-04 -9.454987e-04 -1.522288e-03
0.168272       -1.650140e+02 -4.824969e-01 2.260176e+03 -1.650141e+02 -4.815574e-01 2.260177e+03 1.107279e-04 -9.394208e-04 -1.510175e-03
0.169028       -1.650052e+02 -4.800200e-01 2.260055e+03 -1.650053e+02 -4.790866e-01 2.260057e+03 1.098635e-04 -9.333886e-04 -1.498418e-03
0.169783       -1.649945e+02 -4.775906e-01 2.259907e+03 -1.649946e+02 -4.766632e-01 2.259908e+03 1.090124e-04 -9.273892e-04 -1.486841e-03
0.170539       -1.649845e+02 -4.751622e-01 2.259769e+03 -1.649846e+02 -4.742407e-01 2.259771e+03 1.081773e-04 -9.214991e-04 -1.475485e-03
0.171275       -1.649742e+02 -4.729576e-01 2.259628e+03 -1.649743e+02 -4.720418e-01 2.259629e+03 1.073872e-04 -9.158132e-04 -1.464750e-03
0.172012       -1.649628e+02 -4.705920e-01 2.259470e+03 -1.649629e+02 -4.696818e-01 2.259471e+03 1.065725e-04 -9.102382e-04 -1.453687e-03
0.172748       -1.649520e+02 -4.681548e-01 2.259320e+03 -1.649521e+02 -4.672500e-01 2.259321e+03 1.057625e-04 -9.047894e-04 -1.442695e-03
0.173485       -1.649401e+02 -4.659352e-01 2.259156e+03 -1.649402e+02 -4.650358e-01 2.259158e+03 1.049787e-04 -8.993600e-04 -1.432060e-03
0.174221       -1.649238e+02 -4.626494e-01 2.258931e+03 -1.649239e+02 -4.617547e-01 2.258932e+03 1.033800e-04 -8.946697e-04 -1.410449e-03
0.174958       -1.649115e+02 -4.598371e-01 2.258758e+03 -1.649116e+02 -4.589473e-01 2.258759e+03 1.021297e-04 -8.897622e-04 -1.393510e-03
0.175694       -1.648983e+02 -4.567446e-01 2.258574e+03 -1.648984e+02 -4.558600e-01 2.258575e+03 1.011478e-04 -8.846043e-04 -1.380165e-03
0.176431       -1.648835e+02 -4.535306e-01 2.258368e+03 -1.648836e+02 -4.526512e-01 2.258369e+03 1.002389e-04 -8.793458e-04 -1.367783e-03
0.177167       -1.648669e+02 -4.503345e-01 2.258138e+03 -1.648670e+02 -4.494605e-01 2.258140e+03 9.938404e-05 -8.740528e-04 -1.356121e-03
0.177904       -1.648513e+02 -4.470725e-01 2.257920e+03 -1.648514e+02 -4.462037e-01 2.257922e+03 9.869565e-05 -8.688165e-04 -1.346725e-03
0.17864        -1.648332e+02 -4.443110e-01 2.257671e+03 -1.648333e+02 -4.434475e-01 2.257672e+03 9.820330e-05 -8.635228e-04 -1.340001e-03
0.179377       -1.648141e+02 -4.407956e-01 2.257403e+03 -1.648142e+02 -4.399373e-01 2.257404e+03 9.777993e-05 -8.583667e-04 -1.334220e-03
0.180114       -1.647968e+02 -4.372309e-01 2.257160e+03 -1.647969e+02 -4.363775e-01 2.257162e+03 9.741111e-05 -8.533194e-04 -1.329183e-03
0.18085        -1.647821e+02 -4.342803e-01 2.256953e+03 -1.647822e+02 -4.334319e-01 2.256954e+03 9.707583e-05 -8.483378e-04 -1.324605e-03
0.181587       -1.647589e+02 -4.321154e-01 2.256633e+03 -1.647590e+02 -4.312721e-01 2.256635e+03 9.679908e-05 -8.432404e-04 -1.320826e-03
0.182323       -1.647405e+02 -4.299362e-01 2.256377e+03 -1.647406e+02 -4.290979e-01 2.256378e+03 9.648620e-05 -8.383390e-04 -1.316564e-03
0.18306        -1.647229e+02 -4.275505e-01 2.256131e+03 -1.647230e+02 -4.267170e-01 2.256132e+03 9.618364e-05 -8.335111e-04 -1.312443e-03
0.183796       -1.647066e+02 -4.249677e-01 2.255901e+03 -1.647067e+02 -4.241389e-01 2.255902e+03 9.585914e-05 -8.287569e-04 -1.308027e-03
0.184533       -1.646889e+02 -4.228052e-01 2.255652e+03 -1.646889e+02 -4.219812e-01 2.255654e+03 9.552922e-05 -8.240014e-04 -1.303538e-03
0.185236       -1.646646e+02 -4.208657e-01 2.255318e+03 -1.646647e+02 -4.200463e-01 2.255319e+03 9.521473e-05 -8.194094e-04 -1.299259e-03
0.185939       -1.646454e+02 -4.185844e-01 2.255050e+03 -1.646455e+02 -4.177694e-01 2.255051e+03 9.486424e-05 -8.149883e-04 -1.294493e-03
0.186642       -1.646280e+02 -4.158953e-01 2.254804e+03 -1.646281e+02 -4.150847e-01 2.254806e+03 9.450358e-05 -8.106401e-04 -1.289588e-03
0.18731        -1.646119e+02 -4.134058e-01 2.254576e+03 -1.646120e+02 -4.125993e-01 2.254577e+03 9.414298e-05 -8.065281e-04 -1.284681e-03
0.187978       -1.645936e+02 -4.113592e-01 2.254321e+03 -1.645937e+02 -4.105568e-01 2.254322e+03 9.377758e-05 -8.023917e-04 -1.279707e-03
0.188646       -1.645728e+02 -4.097740e-01 2.254033e+03 -1.645728e+02 -4.089758e-01 2.254034e+03 9.339941e-05 -7.982384e-04 -1.274560e-03
0.189276       -1.645538e+02 -4.074459e-01 2.253769e+03 -1.645539e+02 -4.066515e-01 2.253770e+03 9.301433e-05 -7.944241e-04 -1.269318e-03
0.189907       -1.645377e+02 -4.051204e-01 2.253540e+03 -1.645378e+02 -4.043298e-01 2.253542e+03 9.262773e-05 -7.906471e-04 -1.264053e-03
0.190501       -1.645207e+02 -4.027862e-01 2.253301e+03 -1.645207e+02 -4.019991e-01 2.253302e+03 9.225742e-05 -7.870887e-04 -1.259009e-03
0.191095       -1.645033e+02 -4.002189e-01 2.253057e+03 -1.645033e+02 -3.994353e-01 2.253058e+03 9.187117e-05 -7.836091e-04 -1.253750e-03
0.191688       -1.644831e+02 -3.980882e-01 2.252777e+03 -1.644832e+02 -3.973081e-01 2.252778e+03 9.162689e-05 -7.801534e-04 -1.250447e-03
0.192282       -1.644620e+02 -3.956469e-01 2.252483e+03 -1.644621e+02 -3.948701e-01 2.252485e+03 9.144717e-05 -7.768059e-04 -1.248049e-03
0.192876       -1.644440e+02 -3.935716e-01 2.252233e+03 -1.644441e+02 -3.927981e-01 2.252234e+03 9.118683e-05 -7.735419e-04 -1.244551e-03
0.193469       -1.644274e+02 -3.913068e-01 2.251997e+03 -1.644275e+02 -3.905364e-01 2.251998e+03 9.087784e-05 -7.703316e-04 -1.240387e-03
0.194014       -1.644128e+02 -3.893729e-01 2.251791e+03 -1.644129e+02 -3.886055e-01 2.251793e+03 9.057796e-05 -7.673795e-04 -1.236339e-03
0.194558       -1.643981e+02 -3.876877e-01 2.251584e+03 -1.643982e+02 -3.869233e-01 2.251585e+03 9.028415e-05 -7.644291e-04 -1.232371e-03
0.195102       -1.643762e+02 -3.861987e-01 2.251281e+03 -1.643763e+02 -3.854373e-01 2.251283e+03 9.001404e-05 -7.614088e-04 -1.228725e-03
0.195646       -1.643553e+02 -3.846359e-01 2.250992e+03 -1.643554e+02 -3.838775e-01 2.250994e+03 8.977021e-05 -7.584224e-04 -1.225437e-03
0.19619        -1.643382e+02 -3.825027e-01 2.250753e+03 -1.643383e+02 -3.817472e-01 2.250755e+03 8.955024e-05 -7.555314e-04 -1.222476e-03
0.196735       -1.643231e+02 -3.804288e-01 2.250539e+03 -1.643232e+02 -3.796761e-01 2.250540e+03 8.937108e-05 -7.526650e-04 -1.220072e-03
0.197279       -1.643075e+02 -3.785339e-01 2.250319e+03 -1.643076e+02 -3.777841e-01 2.250320e+03 8.921279e-05 -7.497486e-04 -1.217949e-03
0.197823       -1.642922e+02 -3.775942e-01 2.250104e+03 -1.642923e+02 -3.768474e-01 2.250105e+03 8.896805e-05 -7.467901e-04 -1.214628e-03
0.198367       -1.642713e+02 -3.761051e-01 2.249814e+03 -1.642714e+02 -3.753613e-01 2.249815e+03 8.874891e-05 -7.437841e-04 -1.211651e-03
0.198912       -1.642491e+02 -3.743013e-01 2.249508e+03 -1.642492e+02 -3.735605e-01 2.249509e+03 8.859735e-05 -7.407924e-04 -1.209601e-03
0.199456       -1.642320e+02 -3.723484e-01 2.249268e+03 -1.642321e+02 -3.716105e-01 2.249269e+03 8.836848e-05 -7.379010e-04 -1.206488e-03
0.2            -1.642170e+02 -3.700230e-01 2.249055e+03 -1.642171e+02 -3.692879e-01 2.249056e+03 8.816563e-05 -7.350660e-04 -1.203731e-03
0.200495       -1.642019e+02 -3.682903e-01 2.248843e+03 -1.642020e+02 -3.675578e-01 2.248844e+03 8.798483e-05 -7.324433e-04 -1.201272e-03
0.20099        -1.641868e+02 -3.663943e-01 2.248629e+03 -1.641868e+02 -3.656644e-01 2.248630e+03 8.779643e-05 -7.298580e-04 -1.198711e-03
0.20148        -1.641676e+02 -3.649102e-01 2.248364e+03 -1.641677e+02 -3.641829e-01 2.248365e+03 8.761166e-05 -7.272827e-04 -1.196199e-03
0.20197        -1.641473e+02 -3.636353e-01 2.248085e+03 -1.641474e+02 -3.629106e-01 2.248086e+03 8.741821e-05 -7.247157e-04 -1.193571e-03
0.202451       -1.641293e+02 -3.618179e-01 2.247834e+03 -1.641294e+02 -3.610956e-01 2.247835e+03 8.720828e-05 -7.222707e-04 -1.190717e-03
0.202926       -1.641137e+02 -3.599140e-01 2.247614e+03 -1.641138e+02 -3.591941e-01 2.247616e+03 8.699034e-05 -7.198753e-04 -1.187753e-03
0.203402       -1.640999e+02 -3.580433e-01 2.247418e+03 -1.641000e+02 -3.573258e-01 2.247419e+03 8.676273e-05 -7.174816e-04 -1.184656e-03
0.203858       -1.640856e+02 -3.562185e-01 2.247217e+03 -1.640857e+02 -3.555033e-01 2.247218e+03 8.653475e-05 -7.151908e-04 -1.181553e-03
0.204325       -1.640703e+02 -3.544556e-01 2.247002e+03 -1.640704e+02 -3.537427e-01 2.247003e+03 8.629745e-05 -7.128762e-04 -1.178322e-03
0.204777       -1.640527e+02 -3.533369e-01 2.246759e+03 -1.640528e+02 -3.526263e-01 2.246760e+03 8.606799e-05 -7.105895e-04 -1.175198e-03
0.205216       -1.640357e+02 -3.521829e-01 2.246524e+03 -1.640358e+02 -3.514745e-01 2.246525e+03 8.583695e-05 -7.083939e-04 -1.172053e-03
0.205673       -1.640200e+02 -3.504596e-01 2.246305e+03 -1.640201e+02 -3.497535e-01 2.246306e+03 8.559551e-05 -7.061833e-04 -1.168767e-03
0.20613        -1.640064e+02 -3.488307e-01 2.246114e+03 -1.640065e+02 -3.481267e-01 2.246115e+03 8.535688e-05 -7.039772e-04 -1.165519e-03
0.206577       -1.639933e+02 -3.472714e-01 2.245930e+03 -1.639934e+02 -3.465696e-01 2.245931e+03 8.511933e-05 -7.018062e-04 -1.162284e-03
0.20703        -1.639791e+02 -3.454824e-01 2.245730e+03 -1.639792e+02 -3.447828e-01 2.245731e+03 8.487856e-05 -6.996350e-04 -1.159005e-03
0.207477       -1.639646e+02 -3.438307e-01 2.245526e+03 -1.639647e+02 -3.431332e-01 2.245527e+03 8.464103e-05 -6.974963e-04 -1.155770e-03
0.207911       -1.639469e+02 -3.427897e-01 2.245281e+03 -1.639470e+02 -3.420943e-01 2.245282e+03 8.441573e-05 -6.953735e-04 -1.152700e-03
0.208345       -1.639289e+02 -3.415698e-01 2.245033e+03 -1.639290e+02 -3.408765e-01 2.245034e+03 8.418394e-05 -6.932865e-04 -1.149543e-03
0.208788       -1.639130e+02 -3.399141e-01 2.244811e+03 -1.639131e+02 -3.392229e-01 2.244813e+03 8.394651e-05 -6.912292e-04 -1.146310e-03
0.209213       -1.638995e+02 -3.383937e-01 2.244622e+03 -1.638996e+02 -3.377044e-01 2.244623e+03 8.371712e-05 -6.892710e-04 -1.143185e-03
0.209629       -1.638860e+02 -3.369244e-01 2.244432e+03 -1.638861e+02 -3.362370e-01 2.244433e+03 8.349201e-05 -6.873448e-04 -1.140118e-03