# Probe 0 (0.29 0.5 0.0073)
# Time        0            
0.00119048    99995        
0.00262605    99953.9      
0.00431798    99886.9      
0.00630415    99855.2      
0.0087317     99840.9      
0.0116794     99828.5      
0.0151631     99817.5      
0.0195177     99802.1      
0.0245981     99777.7      
0.0309486     99731.3      
0.0357114     99697        
0.0404743     99661.1      
0.0452371     99625.1      
0.05          99591.8      
0.0538462     99569.5      
0.0573964     99551.6      
0.0609467     99532.3      
0.0642012     99515.7      
0.0674556     99498.8      
0.0707101     99481.6      
0.0736391     99468.5      
0.076568      99455.8      
0.079497      99443        
0.082426      99428.9      
0.085355      99415.8      
0.088284      99404.4      
0.091213      99392.2      
0.094142      99380        
0.097071      99366.8      
0.1           99354.3      
0.1025        99344.1      
0.105         99333.6      
0.1075        99323.2      
0.109861      99313.4      
0.112091      99304.5      
0.114197      99296.1      
0.116186      99287.8      
0.118065      99279.9      
0.119839      99272.7      
0.121515      99265.7      
0.123097      99259.5      
0.124442      99253.8      
0.12572       99248.2      
0.126776      99244.3      
0.127705      99241.5      
0.128562      99238.8      
0.129356      99236.3      
0.130093      99234        
0.130804      99232        
0.13149       99230        
0.132176      99227.9      
0.132836      99225.6      
0.133496      99223.2      
0.134156      99220.9      
0.134816      99218.7      
0.135506      99216.5      
0.136197      99214.3      
0.136887      99212.2      
0.137615      99210.2      
0.138344      99208.2      
0.139072      99206.2      
0.139801      99204.3      
0.140585      99202.3      
0.14137       99200.3      
0.142233      99197.9      
0.143096      99195.4      
0.143959      99192.7      
0.144822      99189.5      
0.145685      99185.5      
0.146548      99181.6      
0.147411      99178.6      
0.148274      99175.5      
0.149137      99171.4      
0.15          99166.9      
0.150962      99162.2      
0.151942      99157.7      
0.152923      99153.4      
0.153925      99148.6      
0.154949      99143.2      
0.155973      99138.1      
0.157021      99132.6      
0.158095      99126.6      
0.15917       99120.7      
0.160273      99115.1      
0.161408      99109        
0.162578      99102.7      
0.163747      99096.6      
0.164956      99090.8      
0.166207      99084.4      
0.167459      99078.5      
0.16876       99072.9      
0.170062      99066.6      
0.171423      99059.1      
0.172784      99052.2      
0.174145      99045.7      
0.175581      99038.5      
0.177017      99030.9      
0.178454      99023.2      
0.179993      99015.4      
0.181532      99006.7      
0.183071      98998.2      
0.18461       98989        
0.186149      98979        
0.187688      98968.8      
0.189227      98960.3      
0.190766      98952        
0.192305      98942.3      
0.193844      98932.4      
0.195383      98922.6      
0.196922      98910.6      
0.198461      98896.6      
0.2           98881.7      
0.201667      98865.9      
0.203333      98852.7      
0.205         98839.7      
0.206667      98826.8      
0.2084        98810.3      
0.210133      98792.6      
0.211867      98777.1      
0.2136        98763.9      
0.215333      98750.4      
0.216909      98735        
0.218564      98716.7      
0.220218      98701        
0.221786      98687.3      
0.223353      98674.3      
0.224756      98661.6      
0.226241      98646.2      
0.227726      98632.9      
0.229118      98621.6      
0.23051       98609.6      
0.231902      98596.8      
0.233294      98583.7      
0.234579      98569.2      
0.235981      98552.3      
0.237383      98538.9      
0.238785      98528.8      
0.240187      98517.7      
0.241589      98504.1      
0.242991      98489.6      
0.244392      98472.2      
0.245794      98456.6      
0.247196      98444.3      
0.248598      98430.5      
0.25          98417        
0.251389      98403        
0.252778      98387        
0.25409       98371.5      
0.25544       98356.1      
0.256713      98341.6      
0.258025      98326.7      
0.259379      98313.6      
0.260733      98300.4      
0.262087      98286.5      
0.263491      98272.6      
0.264895      98257.7      
0.266358      98237.3      
0.267821      98220.6      
0.26922       98206.8      
0.270619      98190.6      
0.272018      98176.5      
0.273417      98160        
0.274746      98143.1      
0.276075      98126.7      
0.277483      98112.5      
0.27889       98099.8      
0.280297      98083.2      
0.281705      98066.3      
0.283112      98050.6      
0.284519      98034.2      
0.285927      98018.5      
0.287334      98003.6      
0.288741      97987.5      
0.290149      97968.5      
0.291556      97950.7      
0.292963      97934.6      
0.294371      97920.2      
0.295778      97904.6      
0.297185      97887.1      
0.298593      97869.6      
0.3           97854        
0.301471      97838.5      
0.302941      97823.1      
0.304459      97805.7      
0.305977      97788.2      
0.307495      97769.5      
0.309013      97750.2      
0.31059       97733.3      
0.312105      97716.7      
0.313621      97699        
0.315137      97682.4      
0.316653      97665.3      
0.318241      97648.1      
0.319753      97631.5      
0.321345      97612.4      
0.322937      97592.8      
0.324529      97576.2      
0.326121      97560.7      
0.327713      97544.1      
0.329305      97526.9      
0.330897      97511.1      
0.332489      97494.7      
0.334081      97477.5      
0.335673      97459.4      
0.337264      97441.9      
0.338856      97423.2      
0.340448      97405.9      
0.34204       97392.5      
0.343632      97376.9      
0.345224      97360.3      
0.346816      97344.5      
0.348408      97328.9      
0.35          97312.8      
0.351563      97296.2      
0.353125      97279        
0.354688      97262.8      
0.35625       97248.2      
0.357813      97234.9      
0.359375      97220.4      
0.360938      97205.1      
0.3625        97188.5      
0.364063      97172.6      
0.365625      97158.5      
0.367188      97143.6      
0.36875       97127.9      
0.370313      97111.9      
0.371875      97095.8      
0.373438      97079.7      
0.375         97062.7      
0.376563      97048.6      
0.378125      97035.2      
0.379688      97020.7      
0.38125       97005.5      
0.382813      96989.4      
0.384375      96972.9      
0.385938      96955.2      
0.3875        96937.4      
0.389063      96921.9      
0.390625      96905.3      
0.392188      96888.9      
0.39375       96874.2      
0.395313      96859.4      
0.396875      96844.8      
0.398438      96827.7      
0.4           96809.1      
