# Probe 0 (0.29 0.5 0.0073)
# Time        0            
0.00119048    350          
0.00262605    350          
0.00431798    349.924      
0.00630415    349.849      
0.0087317     349.832      
0.0116794     349.816      
0.0151631     349.803      
0.0195177     349.79       
0.0245981     349.771      
0.0309486     349.738      
0.0357114     349.699      
0.0404743     349.666      
0.0452371     349.629      
0.05          349.593      
0.0538462     349.567      
0.0573964     349.548      
0.0609467     349.53       
0.0642012     349.512      
0.0674556     349.496      
0.0707101     349.479      
0.0736391     349.463      
0.076568      349.451      
0.079497      349.438      
0.082426      349.425      
0.085355      349.41       
0.088284      349.398      
0.091213      349.387      
0.094142      349.374      
0.097071      349.362      
0.1           349.348      
0.1025        349.338      
0.105         349.328      
0.1075        349.317      
0.109861      349.307      
0.112091      349.298      
0.114197      349.29       
0.116186      349.282      
0.118065      349.274      
0.119839      349.266      
0.121515      349.259      
0.123097      349.253      
0.124442      349.248      
0.12572       349.242      
0.126776      349.237      
0.127705      349.234      
0.128562      349.232      
0.129356      349.229      
0.130093      349.227      
0.130804      349.225      
0.13149       349.223      
0.132176      349.221      
0.132836      349.218      
0.133496      349.216      
0.134156      349.214      
0.134816      349.211      
0.135506      349.209      
0.136197      349.207      
0.136887      349.205      
0.137615      349.203      
0.138344      349.201      
0.139072      349.199      
0.139801      349.197      
0.140585      349.195      
0.14137       349.193      
0.142233      349.19       
0.143096      349.188      
0.143959      349.185      
0.144822      349.183      
0.145685      349.179      
0.146548      349.175      
0.147411      349.171      
0.148274      349.168      
0.149137      349.165      
0.15          349.161      
0.150962      349.156      
0.151942      349.151      
0.152923      349.146      
0.153925      349.142      
0.154949      349.137      
0.155973      349.131      
0.157021      349.126      
0.158095      349.12       
0.15917       349.114      
0.160273      349.108      
0.161408      349.103      
0.162578      349.096      
0.163747      349.09       
0.164956      349.084      
0.166207      349.078      
0.167459      349.071      
0.16876       349.065      
0.170062      349.06       
0.171423      349.053      
0.172784      349.045      
0.174145      349.038      
0.175581      349.031      
0.177017      349.024      
0.178454      349.016      
0.179993      349.008      
0.181532      349          
0.183071      348.991      
0.18461       348.983      
0.186149      348.973      
0.187688      348.963      
0.189227      348.953      
0.190766      348.945      
0.192305      348.936      
0.193844      348.926      
0.195383      348.916      
0.196922      348.906      
0.198461      348.893      
0.2           348.879      
0.201667      348.862      
0.203333      348.846      
0.205         348.834      
0.206667      348.821      
0.2084        348.807      
0.210133      348.789      
0.211867      348.772      
0.2136        348.757      
0.215333      348.744      
0.216909      348.731      
0.218564      348.714      
0.220218      348.695      
0.221786      348.681      
0.223353      348.667      
0.224756      348.656      
0.226241      348.642      
0.227726      348.626      
0.229118      348.614      
0.23051       348.603      
0.231902      348.59       
0.233294      348.577      
0.234579      348.565      
0.235981      348.548      
0.237383      348.531      
0.238785      348.519      
0.240187      348.509      
0.241589      348.497      
0.242991      348.483      
0.244392      348.468      
0.245794      348.449      
0.247196      348.435      
0.248598      348.423      
0.25          348.408      
0.251389      348.395      
0.252778      348.381      
0.25409       348.365      
0.25544       348.349      
0.256713      348.334      
0.258025      348.319      
0.259379      348.303      
0.260733      348.291      
0.262087      348.277      
0.263491      348.263      
0.264895      348.249      
0.266358      348.233      
0.267821      348.21       
0.26922       348.196      
0.270619      348.182      
0.272018      348.165      
0.273417      348.152      
0.274746      348.134      
0.276075      348.117      
0.277483      348.1        
0.27889       348.087      
0.280297      348.074      
0.281705      348.056      
0.283112      348.039      
0.284519      348.023      
0.285927      348.006      
0.287334      347.991      
0.288741      347.976      
0.290149      347.959      
0.291556      347.939      
0.292963      347.921      
0.294371      347.906      
0.295778      347.891      
0.297185      347.875      
0.298593      347.857      
0.3           347.839      
0.301471      347.823      
0.302941      347.807      
0.304459      347.791      
0.305977      347.773      
0.307495      347.755      
0.309013      347.736      
0.31059       347.715      
0.312105      347.7        
0.313621      347.683      
0.315137      347.665      
0.316653      347.648      
0.318241      347.63       
0.319753      347.613      
0.321345      347.595      
0.322937      347.575      
0.324529      347.555      
0.326121      347.54       
0.327713      347.524      
0.329305      347.507      
0.330897      347.489      
0.332489      347.474      
0.334081      347.456      
0.335673      347.439      
0.337264      347.42       
0.338856      347.402      
0.340448      347.383      
0.34204       347.366      
0.343632      347.354      
0.345224      347.336      
0.346816      347.32       
0.348408      347.304      
0.35          347.288      
0.351563      347.271      
0.353125      347.254      
0.354688      347.237      
0.35625       347.221      
0.357813      347.206      
0.359375      347.193      
0.360938      347.177      
0.3625        347.162      
0.364063      347.144      
0.365625      347.128      
0.367188      347.115      
0.36875       347.099      
0.370313      347.083      
0.371875      347.066      
0.373438      347.05       
0.375         347.033      
0.376563      347.016      
0.378125      347.003      
0.379688      346.989      
0.38125       346.974      
0.382813      346.958      
0.384375      346.941      
0.385938      346.924      
0.3875        346.906      
0.389063      346.888      
0.390625      346.873      
0.392188      346.855      
0.39375       346.838      
0.395313      346.824      
0.396875      346.809      
0.398438      346.794      
0.4           346.775      
