# Probe 0 (0.29 0.5 0.0073)
# Time        0            
0.00119048    (-0.00125382 0.000155844 0)
0.00262605    (-0.0171798 -0.0302186 0)
0.00431798    (-0.0164245 -0.0258345 0)
0.00630415    (-0.0087778 -0.00390808 0)
0.0087317     (-0.0115734 -0.00200783 0)
0.0116794     (-0.013975 -0.000457821 0)
0.0151631     (-0.0175722 0.000873244 0)
0.0195177     (-0.0227278 0.00110611 0)
0.0245981     (-0.0288692 0.00111328 0)
0.0309486     (-0.0379761 0.000502193 0)
0.0357114     (-0.0395321 0.00171675 0)
0.0404743     (-0.0450698 0.00190011 0)
0.0452371     (-0.0488289 0.00271618 0)
0.05          (-0.0518805 0.00371611 0)
0.0538462     (-0.0524159 0.0047505 0)
0.0573964     (-0.053027 0.00511504 0)
0.0609467     (-0.0571774 0.00522703 0)
0.0642012     (-0.0588404 0.00598344 0)
0.0674556     (-0.0610341 0.00602909 0)
0.0707101     (-0.0627246 0.00621208 0)
0.0736391     (-0.0627478 0.00699043 0)
0.076568      (-0.064894 0.00708236 0)
0.079497      (-0.066413 0.00733943 0)
0.082426      (-0.0680432 0.00704705 0)
0.085355      (-0.0687041 0.00761353 0)
0.088284      (-0.0687924 0.00791052 0)
0.091213      (-0.0702465 0.0076499 0)
0.094142      (-0.0711229 0.00787667 0)
0.097071      (-0.0719547 0.00754889 0)
0.1           (-0.0723145 0.00784718 0)
0.1025        (-0.0720452 0.00781519 0)
0.105         (-0.0727316 0.00766512 0)
0.1075        (-0.0732579 0.00781842 0)
0.109861      (-0.073495 0.00770897 0)
0.112091      (-0.0733996 0.00780847 0)
0.114197      (-0.073093 0.00764819 0)
0.116186      (-0.0734831 0.00748773 0)
0.118065      (-0.0736531 0.0074534 0)
0.119839      (-0.0735872 0.00754274 0)
0.121515      (-0.0737475 0.00739856 0)
0.123097      (-0.073695 0.00763759 0)
0.124442      (-0.0735713 0.00715474 0)
0.12572       (-0.073292 0.00710232 0)
0.126776      (-0.0729444 0.00767454 0)
0.127705      (-0.072847 0.00802872 0)
0.128562      (-0.0730043 0.00784936 0)
0.129356      (-0.0730364 0.00776201 0)
0.130093      (-0.0729604 0.00794828 0)
0.130804      (-0.07295 0.00804708 0)
0.13149       (-0.0729932 0.00793549 0)
0.132176      (-0.0730271 0.00768529 0)
0.132836      (-0.0730123 0.00748017 0)
0.133496      (-0.0729486 0.00742991 0)
0.134156      (-0.0728307 0.00750584 0)
0.134816      (-0.0727184 0.00759382 0)
0.135506      (-0.0726418 0.00763006 0)
0.136197      (-0.072567 0.00769314 0)
0.136887      (-0.0723702 0.00780178 0)
0.137615      (-0.0720521 0.00787659 0)
0.138344      (-0.0718682 0.00784054 0)
0.139072      (-0.0717665 0.0078221 0)
0.139801      (-0.0714793 0.00789093 0)
0.140585      (-0.0711346 0.00792362 0)
0.14137       (-0.071033 0.00783775 0)
0.142233      (-0.0710552 0.0076946 0)
0.143096      (-0.0709599 0.00756072 0)
0.143959      (-0.0706738 0.00745901 0)
0.144822      (-0.0703351 0.00687257 0)
0.145685      (-0.0700349 0.00619499 0)
0.146548      (-0.0698525 0.00653478 0)
0.147411      (-0.0698243 0.00738362 0)
0.148274      (-0.0697331 0.00693896 0)
0.149137      (-0.069265 0.00595888 0)
0.15          (-0.0685977 0.00584134 0)
0.150962      (-0.0679917 0.00615988 0)
0.151942      (-0.0675397 0.00638988 0)
0.152923      (-0.0670106 0.00644482 0)
0.153925      (-0.0661852 0.00598829 0)
0.154949      (-0.0653787 0.00573438 0)
0.155973      (-0.0647368 0.00603475 0)
0.157021      (-0.0641508 0.00580177 0)
0.158095      (-0.0635936 0.00555142 0)
0.15917       (-0.0630864 0.00575849 0)
0.160273      (-0.0626509 0.00603155 0)
0.161408      (-0.0621488 0.00567304 0)
0.162578      (-0.0617673 0.00573849 0)
0.163747      (-0.0613745 0.00595623 0)
0.164956      (-0.0611165 0.00615519 0)
0.166207      (-0.061036 0.00578973 0)
0.167459      (-0.0607081 0.00625102 0)
0.16876       (-0.0608475 0.00638596 0)
0.170062      (-0.0610358 0.00587628 0)
0.171423      (-0.061177 0.00543196 0)
0.172784      (-0.061894 0.00603427 0)
0.174145      (-0.0625591 0.00600947 0)
0.175581      (-0.0627784 0.00577886 0)
0.177017      (-0.063498 0.0055139 0)
0.178454      (-0.0645703 0.00557599 0)
0.179993      (-0.0657151 0.00575584 0)
0.181532      (-0.0665426 0.00503119 0)
0.183071      (-0.0681796 0.00540333 0)
0.18461       (-0.0693224 0.00474835 0)
0.186149      (-0.0702 0.00456639 0)
0.187688      (-0.072541 0.00441073 0)
0.189227      (-0.0752388 0.00538654 0)
0.190766      (-0.077358 0.00502652 0)
0.192305      (-0.0793822 0.0042586 0)
0.193844      (-0.0820309 0.0042665 0)
0.195383      (-0.0843804 0.00414407 0)
0.196922      (-0.0849025 0.00284017 0)
0.198461      (-0.0867106 0.00204081 0)
0.2           (-0.0886022 0.00172887 0)
0.201667      (-0.0926419 0.00195576 0)
0.203333      (-0.0975717 0.00322543 0)
0.205         (-0.102095 0.00248855 0)
0.206667      (-0.105687 0.00259401 0)
0.2084        (-0.107716 0.000679798 0)
0.210133      (-0.110162 0.00060585 0)
0.211867      (-0.11711 0.00151941 0)
0.2136        (-0.123794 0.00197769 0)
0.215333      (-0.128746 0.00133421 0)
0.216909      (-0.131121 -0.000644501 0)
0.218564      (-0.13602 -0.00149872 0)
0.220218      (-0.142548 -4.68096e-05 0)
0.221786      (-0.149157 -0.000426946 0)
0.223353      (-0.155236 -0.000469037 0)
0.224756      (-0.159129 -0.00161755 0)
0.226241      (-0.161708 -0.0024576 0)
0.227726      (-0.168847 -0.00119216 0)
0.229118      (-0.17733 -0.0017356 0)
0.23051       (-0.182962 -0.0027926 0)
0.231902      (-0.188716 -0.00363262 0)
0.233294      (-0.195463 -0.00415122 0)
0.234579      (-0.196505 -0.00580877 0)
0.235981      (-0.200607 -0.00661693 0)
0.237383      (-0.211331 -0.00482435 0)
0.238785      (-0.219571 -0.00403586 0)
0.240187      (-0.224844 -0.00617502 0)
0.241589      (-0.228876 -0.00796165 0)
0.242991      (-0.232783 -0.00815733 0)
0.244392      (-0.236459 -0.0111321 0)
0.245794      (-0.244023 -0.00961188 0)
0.247196      (-0.252271 -0.00859307 0)
0.248598      (-0.259831 -0.0118629 0)
0.25          (-0.266311 -0.011081 0)
0.251389      (-0.270981 -0.0124466 0)
0.252778      (-0.278318 -0.015305 0)
0.25409       (-0.283539 -0.0152931 0)
0.25544       (-0.289066 -0.0154479 0)
0.256713      (-0.296205 -0.0168619 0)
0.258025      (-0.304383 -0.0176689 0)
0.259379      (-0.312986 -0.0165778 0)
0.260733      (-0.319955 -0.018717 0)
0.262087      (-0.327003 -0.0203513 0)
0.263491      (-0.332669 -0.0202775 0)
0.264895      (-0.337656 -0.0219795 0)
0.266358      (-0.343845 -0.0272277 0)
0.267821      (-0.355445 -0.0245522 0)
0.26922       (-0.367627 -0.0259193 0)
0.270619      (-0.375492 -0.030187 0)
0.272018      (-0.381929 -0.0284213 0)
0.273417      (-0.386501 -0.0318916 0)
0.274746      (-0.39385 -0.0336309 0)
0.276075      (-0.404593 -0.0351874 0)
0.277483      (-0.417966 -0.03448 0)
0.27889       (-0.425271 -0.0355413 0)
0.280297      (-0.429476 -0.0409556 0)
0.281705      (-0.43447 -0.0404493 0)
0.283112      (-0.442641 -0.0412894 0)
0.284519      (-0.452889 -0.0450603 0)
0.285927      (-0.463606 -0.0466164 0)
0.287334      (-0.47157 -0.0478129 0)
0.288741      (-0.479249 -0.0509144 0)
0.290149      (-0.484555 -0.0545948 0)
0.291556      (-0.493709 -0.0552812 0)
0.292963      (-0.506075 -0.0565784 0)
0.294371      (-0.517719 -0.0579937 0)
0.295778      (-0.525782 -0.0620185 0)
0.297185      (-0.531073 -0.0650012 0)
0.298593      (-0.539371 -0.0662539 0)
0.3           (-0.550418 -0.0676206 0)
0.301471      (-0.559701 -0.0703695 0)
0.302941      (-0.569745 -0.073565 0)
0.304459      (-0.576385 -0.0763892 0)
0.305977      (-0.58458 -0.0786114 0)
0.307495      (-0.592735 -0.0820159 0)
0.309013      (-0.603314 -0.0863543 0)
0.31059       (-0.616687 -0.0866036 0)
0.312105      (-0.624059 -0.0898292 0)
0.313621      (-0.631082 -0.093009 0)
0.315137      (-0.642226 -0.0960323 0)
0.316653      (-0.65156 -0.0993843 0)
0.318241      (-0.662115 -0.101398 0)
0.319753      (-0.670076 -0.104949 0)
0.321345      (-0.676267 -0.108163 0)
0.322937      (-0.684891 -0.112172 0)
0.324529      (-0.699364 -0.114413 0)
0.326121      (-0.708805 -0.116737 0)
0.327713      (-0.71534 -0.120444 0)
0.329305      (-0.723549 -0.124135 0)
0.330897      (-0.734967 -0.127163 0)
0.332489      (-0.742763 -0.1309 0)
0.334081      (-0.748166 -0.133377 0)
0.335673      (-0.75522 -0.137182 0)
0.337264      (-0.764697 -0.139154 0)
0.338856      (-0.772573 -0.144271 0)
0.340448      (-0.784033 -0.147492 0)
0.34204       (-0.797435 -0.148604 0)
0.343632      (-0.799218 -0.152298 0)
0.345224      (-0.804197 -0.155127 0)
0.346816      (-0.814305 -0.158689 0)
0.348408      (-0.822659 -0.162386 0)
0.35          (-0.826642 -0.16498 0)
0.351563      (-0.83085 -0.167707 0)
0.353125      (-0.837295 -0.170832 0)
0.354688      (-0.845623 -0.173101 0)
0.35625       (-0.855554 -0.17572 0)
0.357813      (-0.864975 -0.179244 0)
0.359375      (-0.869653 -0.183324 0)
0.360938      (-0.873662 -0.186169 0)
0.3625        (-0.877635 -0.188785 0)
0.364063      (-0.885687 -0.191748 0)
0.365625      (-0.894668 -0.194205 0)
0.367188      (-0.898346 -0.197558 0)
0.36875       (-0.900791 -0.199597 0)
0.370313      (-0.904632 -0.201694 0)
0.371875      (-0.912013 -0.205869 0)
0.373438      (-0.919097 -0.209334 0)
0.375         (-0.921 -0.212513 0)
0.376563      (-0.929438 -0.213587 0)
0.378125      (-0.93624 -0.216572 0)
0.379688      (-0.939365 -0.219427 0)
0.38125       (-0.942992 -0.221903 0)
0.382813      (-0.945778 -0.224622 0)
0.384375      (-0.948309 -0.226699 0)
0.385938      (-0.95007 -0.229234 0)
0.3875        (-0.954433 -0.231213 0)
0.389063      (-0.963397 -0.233409 0)
0.390625      (-0.966049 -0.236889 0)
0.392188      (-0.969303 -0.238665 0)
0.39375       (-0.976065 -0.241097 0)
0.395313      (-0.98048 -0.244124 0)
0.396875      (-0.984092 -0.245975 0)
0.398438      (-0.97997 -0.247878 0)
0.4           (-0.978275 -0.2493 0)
