# Probe 0 (0.29 0.5 0.0073)
# Time        0            
0.00119048    99994.8      
0.00262605    99921.9      
0.00431798    99804.2      
0.00630415    99737.6      
0.0087317     99702.3      
0.0116794     99675.6      
0.0151631     99655.7      
0.0195177     99636.2      
0.0245981     99610.5      
0.0309486     99570.5      
0.0372991     99520.7      
0.0436495     99454.7      
0.05          99386.3      
0.0571429     99303.3      
0.0642857     99216.8      
0.0702381     99152.8      
0.0761905     99093.9      
0.0821429     99042.9      
0.0880952     98995.7      
0.0940476     98948.8      
0.1           98900.5      
0.103846      98871.5      
0.107396      98848.2      
0.110674      98829.1      
0.113699      98809.4      
0.116491      98790        
0.118885      98774.9      
0.121107      98762.3      
0.123171      98750.6      
0.125087      98740.1      
0.126867      98731.1      
0.128519      98723.1      
0.130172      98714.8      
0.131697      98707.1      
0.133222      98699.5      
0.134747      98691.7      
0.136273      98683.8      
0.137798      98676        
0.139323      98669.1      
0.141103      98661        
0.143327      98650.2      
0.145551      98638.1      
0.147776      98623        
0.15          98607.6      
0.152381      98591.1      
0.154887      98571.3      
0.157541      98553.4      
0.160195      98539.1      
0.163038      98520.4      
0.165881      98502        
0.168983      98477.2      
0.172085      98456.8      
0.175186      98436.1      
0.178731      98411.4      
0.182276      98383.2      
0.185821      98352.4      
0.189366      98320.3      
0.19291       98290.9      
0.196455      98265.5      
0.2           98234.6      
0.203571      98196.6      
0.207143      98162.6      
0.211039      98123.2      
0.214935      98087.1      
0.218831      98041        
0.222727      97999.1      
0.226623      97965.9      
0.230519      97922.7      
0.234416      97878.3      
0.238312      97839.4      
0.242208      97800.2      
0.246104      97760.2      
0.25          97721.2      
0.254167      97684        
0.258333      97641.8      
0.2625        97599.2      
0.266667      97558.6      
0.270833      97513.5      
0.275         97472.2      
0.279167      97425.4      
0.283333      97388.6      
0.2875        97359.2      
0.291667      97326.3      
0.295833      97290.5      
0.3           97254        
0.304167      97217        
0.308333      97182.4      
0.3125        97128.5      
0.316667      97093.4      
0.320833      97070.1      
0.325         97033.6      
0.329167      96998.2      
0.333333      96966.6      
0.3375        96941.1      
0.341667      96906.1      
0.345833      96868.1      
0.35          96833.6      
0.354167      96802.3      
0.358333      96765.8      
0.3625        96723.1      
0.366667      96687        
0.370833      96658.5      
0.375         96619.9      
0.379167      96578.2      
0.383333      96538.3      
0.3875        96504.6      
0.391667      96464.6      
0.395833      96414.3      
0.4           96367.6      
