# Probe 0 (0.29 0.5 0.0073)
# Time        0            
0.00119048    350          
0.00262605    349.999      
0.00431798    349.871      
0.00630415    349.738      
0.0087317     349.689      
0.0116794     349.652      
0.0151631     349.626      
0.0195177     349.604      
0.0245981     349.582      
0.0309486     349.548      
0.0372991     349.505      
0.0436495     349.453      
0.05          349.381      
0.0571429     349.305      
0.0642857     349.219      
0.0702381     349.146      
0.0761905     349.085      
0.0821429     349.026      
0.0880952     348.978      
0.0940476     348.931      
0.1           348.884      
0.103846      348.852      
0.107396      348.826      
0.110674      348.805      
0.113699      348.788      
0.116491      348.768      
0.118885      348.751      
0.121107      348.738      
0.123171      348.727      
0.125087      348.715      
0.126867      348.706      
0.128519      348.698      
0.130172      348.69       
0.131697      348.682      
0.133222      348.674      
0.134747      348.666      
0.136273      348.658      
0.137798      348.65       
0.139323      348.643      
0.141103      348.635      
0.143327      348.624      
0.145551      348.613      
0.147776      348.601      
0.15          348.584      
0.152381      348.568      
0.154887      348.55       
0.157541      348.528      
0.160195      348.512      
0.163038      348.497      
0.165881      348.476      
0.168983      348.457      
0.172085      348.43       
0.175186      348.412      
0.178731      348.386      
0.182276      348.362      
0.185821      348.332      
0.189366      348.3        
0.19291       348.267      
0.196455      348.239      
0.2           348.214      
0.203571      348.18       
0.207143      348.14       
0.211039      348.105      
0.214935      348.063      
0.218831      348.028      
0.222727      347.977      
0.226623      347.938      
0.230519      347.906      
0.234416      347.857      
0.238312      347.814      
0.242208      347.776      
0.246104      347.735      
0.25          347.695      
0.254167      347.653      
0.258333      347.616      
0.2625        347.571      
0.266667      347.528      
0.270833      347.488      
0.275         347.44       
0.279167      347.4        
0.283333      347.349      
0.2875        347.317      
0.291667      347.288      
0.295833      347.252      
0.3           347.216      
0.304167      347.178      
0.308333      347.14       
0.3125        347.106      
0.316667      347.043      
0.320833      347.018      
0.325         346.995      
0.329167      346.952      
0.333333      346.918      
0.3375        346.886      
0.341667      346.863      
0.345833      346.822      
0.35          346.784      
0.354167      346.75       
0.358333      346.718      
0.3625        346.679      
0.366667      346.633      
0.370833      346.6        
0.375         346.572      
0.379167      346.528      
0.383333      346.486      
0.3875        346.445      
0.391667      346.413      
0.395833      346.369      
0.4           346.314      
