x,y,z,U_0,U_1,U_2
0,0.29,0.0073,0,0,0
0.00539394,0.29,0.0073,-0.00906729,-0.163711,0
0.0107879,0.29,0.0073,-0.018091,-0.313801,0
0.0161818,0.29,0.0073,-0.0270596,-0.355557,0
0.0215758,0.29,0.0073,-0.036089,-0.357485,0
0.0269697,0.29,0.0073,-0.0453005,-0.35855,0
0.0323636,0.29,0.0073,-0.0547582,-0.358107,0
0.0377576,0.29,0.0073,-0.0642166,-0.357667,0
0.0431515,0.29,0.0073,-0.0738513,-0.356944,0
0.0485455,0.29,0.0073,-0.0834821,-0.356181,0
0.0539394,0.29,0.0073,-0.0933315,-0.355199,0
0.0593333,0.29,0.0073,-0.103268,-0.354011,0
0.0647273,0.29,0.0073,-0.113322,-0.352723,0
0.0701212,0.29,0.0073,-0.123542,-0.350969,0
0.0755152,0.29,0.0073,-0.133761,-0.349216,0
0.0809091,0.29,0.0073,-0.144245,-0.34685,0
0.086303,0.29,0.0073,-0.154686,-0.344372,0
0.091697,0.29,0.0073,-0.165254,-0.341446,0
0.0970909,0.29,0.0073,-0.175771,-0.338095,0
0.102485,0.29,0.0073,-0.18636,-0.334566,0
0.107879,0.29,0.0073,-0.19673,-0.330246,0
0.113273,0.29,0.0073,-0.2071,-0.325926,0
0.118667,0.29,0.0073,-0.217221,-0.320788,0
0.124061,0.29,0.0073,-0.227168,-0.315515,0
0.129455,0.29,0.0073,-0.236881,-0.309811,0
0.134848,0.29,0.0073,-0.246145,-0.303755,0
0.140242,0.29,0.0073,-0.255368,-0.297561,0
0.145636,0.29,0.0073,-0.263796,-0.291037,0
0.15103,0.29,0.0073,-0.272223,-0.284513,0
0.156424,0.29,0.0073,-0.280061,-0.277843,0
0.161818,0.29,0.0073,-0.287694,-0.271235,0
0.167212,0.29,0.0073,-0.295093,-0.264659,0
0.172606,0.29,0.0073,-0.302201,-0.258263,0
0.178,0.29,0.0073,-0.309278,-0.251873,0
0.183394,0.29,0.0073,-0.316255,-0.245759,0
0.188788,0.29,0.0073,-0.323245,-0.239648,0
0.194182,0.29,0.0073,-0.330398,-0.233662,0
0.199576,0.29,0.0073,-0.337662,-0.227687,0
0.20497,0.29,0.0073,-0.345126,-0.221725,0
0.210364,0.29,0.0073,-0.352972,-0.215612,0
0.215758,0.29,0.0073,-0.360836,-0.209535,0
0.221152,0.29,0.0073,-0.369483,-0.202985,0
0.226545,0.29,0.0073,-0.378114,-0.196383,0
0.231939,0.29,0.0073,-0.38739,-0.18932,0
0.237333,0.29,0.0073,-0.396896,-0.181842,0
0.242727,0.29,0.0073,-0.406802,-0.174103,0
0.248121,0.29,0.0073,-0.417247,-0.165324,0
0.253515,0.29,0.0073,-0.42771,-0.156559,0
0.258909,0.29,0.0073,-0.439273,-0.146065,0
0.264303,0.29,0.0073,-0.450713,-0.13533,0
0.269697,0.29,0.0073,-0.46262,-0.122962,0
0.275091,0.29,0.0073,-0.474214,-0.109218,0
0.280485,0.29,0.0073,-0.485831,-0.0944539,0
0.285879,0.29,0.0073,-0.49547,-0.0758835,0
0.291273,0.29,0.0073,-0.505108,-0.0573132,0
0.296667,0.29,0.0073,-0.516391,-0.0250459,0
0.302061,0.29,0.0073,-0.523666,0.00464284,0
0.307455,0.29,0.0073,-0.527562,0.0353568,0
0.312848,0.29,0.0073,-0.528534,0.0674709,0
0.318242,0.29,0.0073,-0.526356,0.0952291,0
0.323636,0.29,0.0073,-0.520847,0.117991,0
0.32903,0.29,0.0073,-0.515337,0.140752,0
0.334424,0.29,0.0073,-0.502895,0.16924,0
0.339818,0.29,0.0073,-0.488955,0.197039,0
0.345212,0.29,0.0073,-0.473174,0.224577,0
0.350606,0.29,0.0073,-0.452277,0.247025,0
0.356,0.29,0.0073,-0.43138,0.269474,0
0.361394,0.29,0.0073,-0.407218,0.288138,0
0.366788,0.29,0.0073,-0.382081,0.30311,0
0.372182,0.29,0.0073,-0.356705,0.318065,0
0.377576,0.29,0.0073,-0.33037,0.325371,0
0.38297,0.29,0.0073,-0.304622,0.332246,0
0.388364,0.29,0.0073,-0.278957,0.336542,0
0.393758,0.29,0.0073,-0.255498,0.336814,0
0.399152,0.29,0.0073,-0.232039,0.337087,0
0.404545,0.29,0.0073,-0.210837,0.333849,0
0.409939,0.29,0.0073,-0.191043,0.329863,0
0.415333,0.29,0.0073,-0.171455,0.325194,0
0.420727,0.29,0.0073,-0.155475,0.31881,0
0.426121,0.29,0.0073,-0.139496,0.312426,0
0.431515,0.29,0.0073,-0.125178,0.305177,0
0.436909,0.29,0.0073,-0.112698,0.297795,0
0.442303,0.29,0.0073,-0.100217,0.290412,0
0.447697,0.29,0.0073,-0.090336,0.282671,0
0.453091,0.29,0.0073,-0.0807888,0.275216,0
0.458485,0.29,0.0073,-0.071925,0.267657,0
0.463879,0.29,0.0073,-0.0647108,0.260668,0
0.469273,0.29,0.0073,-0.0574967,0.253678,0
0.474667,0.29,0.0073,-0.0515356,0.247016,0
0.480061,0.29,0.0073,-0.0461125,0.240788,0
0.485455,0.29,0.0073,-0.0408076,0.23451,0
0.490848,0.29,0.0073,-0.0367432,0.229129,0
0.496242,0.29,0.0073,-0.0326541,0.223787,0
0.501636,0.29,0.0073,-0.0290682,0.218741,0
0.50703,0.29,0.0073,-0.025952,0.214308,0
0.512424,0.29,0.0073,-0.0228358,0.209874,0
0.517818,0.29,0.0073,-0.0203713,0.206096,0
0.523212,0.29,0.0073,-0.0179534,0.20255,0
0.528606,0.29,0.0073,-0.0157124,0.199126,0
0.534,0.29,0.0073,-0.0137831,0.19643,0
