# p  POINT_DATA 321
# x y z  p
0.20313 0.0730043 0 98300.5
0.202869 0.07326 0.0142993 98296
0.202869 0.07326 0.000300683 98296
0.20313 0.0730043 0.0140068 98300.5
0.20313 0.0730043 0.0146 98300.5
0.201921 0.0735228 0.0146 98296.9
0.201921 0.0735228 0.0132089 98296.9
0.201921 0.0735228 0 98296.9
0.202667 0.0730574 0 98301.7
0.202667 0.0730574 0.0146 98301.7
0.215826 0.0699652 0 98319
0.213789 0.0714749 0.0122571 98276.2
0.213789 0.0714749 0.00234289 98276.2
0.215826 0.0699652 0.01053 98319
0.215826 0.0699652 0.0146 98319
0.2035 0.0731515 0.0141752 98293
0.2035 0.0731515 0.000424751 98293
0.212719 0.0703997 0 98319.9
0.212719 0.0703997 0.0146 98319.9
0.228522 0.0679091 0 98344.1
0.22474 0.0697217 0.0073 98268.5
0.228522 0.0679091 0.00817777 98344.1
0.228522 0.0679091 0.0146 98344.1
0.218892 0.0704411 0.0110744 98270.5
0.218892 0.0704411 0.00352563 98270.5
0.223713 0.0686892 0 98333.3
0.223713 0.0686892 0.0146 98333.3
0.241217 0.06738 0 98362.9
0.241217 0.06738 0.00757242 98362.9
0.234891 0.0665451 0.00730809 98286.5
0.241217 0.06738 0.0146 98362.9
0.235355 0.0676294 0 98349.8
0.235355 0.0676294 0.0146 98349.8
0.253913 0.0703987 0 98345.9
0.248023 0.0689012 0.00747563 98282.4
0.253913 0.0703987 0.011026 98345.9
0.253913 0.0703987 0.0146 98345.9
0.250006 0.0695953 0 98342.9
0.250006 0.0695953 0.0146 98342.9
0.255461 0.071967 0.0128201 98303.5
0.255461 0.071967 0.00177985 98303.5
0.259531 0.0735228 0.0146 98304.5
0.259531 0.0735228 0.00646079 98304.5
0.259531 0.0735228 0 98304.5
0.177739 0.0827208 0 98303.5
0.175928 0.0844646 0.0125177 98282.6
0.175928 0.0844646 0.00208233 98282.6
0.177739 0.0827208 0.0105227 98303.5
0.177739 0.0827208 0.0146 98303.5
0.169762 0.0862847 0.0146 98290.6
0.169762 0.0862847 0.00542682 98290.6
0.169762 0.0862847 0 98290.6
0.174835 0.0833659 0 98311.3
0.174835 0.0833659 0.0146 98311.3
0.190435 0.0781088 0 98307.8
0.183634 0.0813854 0.00712628 98271.9
0.190435 0.0781088 0.00524653 98307.8
0.190435 0.0781088 0.0146 98307.8
0.184487 0.0803056 0 98317.4
0.184487 0.0803056 0.0146 98317.4
0.193969 0.0770757 0 98312.5
0.192801 0.0759015 0.00272129 98306.7
0.193969 0.0770757 0.0146 98312.5
0.192801 0.0759015 0.0118787 98306.7
0.266609 0.0775123 0 98304.8
0.266609 0.0775123 0.00456409 98304.8
0.264869 0.0752711 0.00200009 98307.1
0.264869 0.0752711 0.0125999 98307.1
0.266609 0.0775123 0.0146 98304.8
0.27137 0.0814989 0.0073 98265.1
0.277145 0.0862847 0.0146 98257
0.277145 0.0862847 0.0121165 98257
0.277145 0.0862847 0 98257
0.152348 0.0941776 0 98294.9
0.149864 0.0965496 0.0117432 98274.1
0.149864 0.0965496 0.00285678 98274.1
0.152348 0.0941776 0.00902966 98294.9
0.152348 0.0941776 0.0146 98294.9
0.141168 0.0990467 0.0146 98282.8
0.141168 0.0990467 0.00174281 98282.8
0.141168 0.0990467 0 98282.8
0.148557 0.0952362 0 98303.2
0.148557 0.0952362 0.0146 98303.2
0.165043 0.0885236 0 98293.6
0.165043 0.0885236 0.00256135 98293.6
0.159561 0.0906569 0.00763164 98280.8
0.165043 0.0885236 0.0146 98293.6
0.158008 0.0919747 0 98304.7
0.158008 0.0919747 0.0146 98304.7
0.166844 0.0880947 0 98294.6
0.166022 0.0872681 0.00112503 98294.4
0.166844 0.0880947 0.0146 98294.6
0.166022 0.0872681 0.013475 98294.4
0.279304 0.0886222 0 98254.6
0.279304 0.0886222 0.00267412 98254.6
0.278566 0.0870271 0.000849214 98256.4
0.278566 0.0870271 0.0137508 98256.4
0.279304 0.0886222 0.0146 98254.6
0.28349 0.0948394 0.0073 98232.7
0.287235 0.0990467 0.0146 98230.6
0.287235 0.0990467 0.00912068 98230.6
0.287235 0.0990467 0 98230.6
0.114261 0.109376 0 98285.3
0.113032 0.110574 0.0131871 98275.7
0.113032 0.110574 0.00141291 98275.7
0.114261 0.109376 0.0118171 98285.3
0.114261 0.109376 0.0146 98285.3
0.107312 0.111809 0.0146 98279.5
0.107312 0.111809 0.00660914 98279.5
0.107312 0.111809 0 98279.5
0.112198 0.109735 0 98288.9
0.112198 0.109735 0.0146 98288.9
0.126957 0.105087 0 98289.3
0.122912 0.107743 0.0073 98268.8
0.126957 0.105087 0.00691031 98289.3
0.126957 0.105087 0.0146 98289.3
0.11666 0.109397 0.0118407 98271.5
0.11666 0.109397 0.00275931 98271.5
0.121815 0.10664 0 98296.2
0.121815 0.10664 0.0146 98296.2
0.139652 0.0997831 0 98283.5
0.139652 0.0997831 0.000842441 98283.5
0.138877 0.0998258 0.000891363 98282.5
0.138877 0.0998258 0.0137086 98282.5
0.139652 0.0997831 0.0146 98283.5
0.131526 0.10364 0 98293.7
0.130517 0.102625 0.0073 98285.8
0.131526 0.10364 0.0146 98293.7
0.140272 0.0996701 0 98283.7
0.139975 0.0993716 0.000371772 98283.6
0.140272 0.0996701 0.0146 98283.7
0.139975 0.0993716 0.0142282 98283.6
0.292 0.105697 0 98231.1
0.292 0.105697 0.00760759 98231.1
0.28975 0.101308 0.00258701 98230.6
0.28975 0.101308 0.012013 98230.6
0.292 0.105697 0.0146 98231.1
0.0634783 0.122679 0 98281
0.0624266 0.123513 0.0133905 98273.8
0.0624266 0.123513 0.00120946 98273.8
0.0634783 0.122679 0.0124357 98281
0.0634783 0.122679 0.0146 98281
0.0524616 0.124571 0.0146 98276.4
0.0524616 0.124571 0.00193087 98276.4
0.0524616 0.124571 0 98276.4
0.0617533 0.122837 0 98282.3
0.0617533 0.122837 0.0146 98282.3
0.0761739 0.120224 0 98285.1
0.0735818 0.121965 0.0116191 98270.6
0.0735818 0.121965 0.00298088 98270.6
0.0761739 0.120224 0.00962776 98285.1
0.0761739 0.120224 0.0146 98285.1
0.0648855 0.123156 0.0129817 98272.4
0.0648855 0.123156 0.00161832 98272.4
0.0724081 0.120785 0 98287.7
0.0724081 0.120785 0.0146 98287.7
0.0888696 0.117362 0 98286.2
0.0822569 0.119536 0.00719849 98269.1
0.0888696 0.117362 0.00635294 98286.2
0.0888696 0.117362 0.0146 98286.2
0.0830107 0.118681 0 98290.2
0.0830107 0.118681 0.0146 98290.2
0.101565 0.113857 0 98282.1
0.101565 0.113857 0.00234299 98282.1
0.0996459 0.113738 0.00220717 98279.9
0.0996459 0.113738 0.0123928 98279.9
0.101565 0.113857 0.0146 98282.1
0.0933956 0.116358 0 98288.6
0.0924037 0.115361 0.0073 98282.5
0.0933956 0.116358 0.0146 98288.6
0.103294 0.113547 0 98282.5
0.102604 0.112853 0.00119494 98282
0.103294 0.113547 0.0146 98282.5
0.102604 0.112853 0.0134051 98282
0.0126957 0.128229 0 98281.9
0.0126957 0.128229 0.00418531 98281.9
0.00993291 0.127348 0.00317715 98279.3
0.00993291 0.127348 0.0114228 98279.3
0.0126957 0.128229 0.0146 98281.9
0.00284994 0.127435 0.0113226 98279.4
0 0.128424 0.0146 98282.1
0.00284994 0.127435 0.00327743 98279.4
0 0.128424 0.00440848 98282.1
0 0.128424 0 98282.1
0.0037857 0.128376 0 98282.2
0.0037857 0.128376 0.0146 98282.2
0.0253913 0.127614 0 98281.1
0.0253913 0.127614 0.00348154 98281.1
0.0231209 0.126853 0.00261091 98279.3
0.0231209 0.126853 0.0119891 98279.3
0.0253913 0.127614 0.0146 98281.1
0.0162012 0.128094 0 98282.1
0.0152611 0.127149 0.00295029 98279.8
0.0152611 0.127149 0.0116497 98279.8
0.0162012 0.128094 0.0146 98282.1
0.038087 0.126529 0 98279.4
0.038087 0.126529 0.00224014 98279.4
0.036697 0.125968 0.00159843 98278.6
0.036697 0.125968 0.0130016 98278.6
0.038087 0.126529 0.0146 98279.4
0.0282447 0.127439 0 98281.3
0.0273566 0.126546 0.00226008 98280
0.0273566 0.126546 0.0123399 98280
0.0282447 0.127439 0.0146 98281.3
0.0507826 0.124876 0 98276.8
0.0507826 0.124876 0.000349861 98276.8
0.0505812 0.124773 0.000231564 98276.7
0.0505812 0.124773 0.0143684 98276.7
0.0507826 0.124876 0.0146 98276.8
0.0398962 0.126389 0 98279.6
0.0392391 0.125729 0.00132501 98279.1
0.0392391 0.125729 0.013275 98279.1
0.0398962 0.126389 0.0146 98279.6
0.0510631 0.124852 0 98276.8
0.0509467 0.124736 0.000188748 98276.7
0.0510631 0.124852 0.0146 98276.8
0.0509467 0.124736 0.0144113 98276.7
0.299887 0.0539819 0.00714823 98205.8
0.302207 0.0607609 0.0146 98225
0.302207 0.0607609 0.0102385 98225
0.302207 0.0607609 0 98225
0.30017 0.047999 0 98170.7
0.30017 0.047999 0.00528193 98170.7
0.30017 0.047999 0.0146 98170.7
0.301468 0.055376 0 98193
0.301468 0.055376 0.0146 98193
0.304 0.0654554 0 98243.4
0.303223 0.0624127 0.00188966 98246.5
0.304 0.0654554 0.00537062 98243.4
0.303223 0.0624127 0.0127103 98246.5
0.304 0.0654554 0.0146 98243.4
0.305375 0.0705971 0.0112529 98239.5
0.30707 0.0735228 0.0146 98240.1
0.305375 0.0705971 0.00334714 98239.5
0.30707 0.0735228 0.00747204 98240.1
0.30707 0.0735228 0 98240.1
0.31 0.0825634 0 98234
0.308736 0.0762099 0.00307413 98234.8
0.31 0.0825634 0.0103427 98234
0.308736 0.0762099 0.0115259 98234.8
0.31 0.0825634 0.0146 98234
0.310551 0.0851113 0.0132576 98234.1
0.311221 0.0862847 0.0146 98234.1
0.310551 0.0851113 0.00134243 98234.1
0.311221 0.0862847 0.00297152 98234.1
0.311221 0.0862847 0 98234.1
0.312309 0.0919693 0.00703443 98235.3
0.314381 0.0990467 0.0146 98233
0.314381 0.0990467 0.0106613 98233
0.314381 0.0990467 0 98233
0.312522 0.0916503 0 98233.8
0.312522 0.0916503 0.0146 98233.8
0.29304 0.109597 0.0120697 98230.8
0.29304 0.109597 0.00253027 98230.8
0.294312 0.111809 0.0146 98233.3
0.294312 0.111809 0.00562554 98233.3
0.294312 0.111809 0 98233.3
0.315999 0.105475 0 98233.9
0.31526 0.100619 0.00179893 98232.8
0.315999 0.105475 0.00735364 98233.9
0.31526 0.100619 0.0128011 98232.8
0.315999 0.105475 0.0146 98233.9
0.298 0.121328 0 98237.6
0.298 0.121328 0.0108908 98237.6
0.296272 0.115484 0.0073 98237.1
0.298 0.121328 0.0146 98237.6
0.298525 0.123453 0.013321 98239.4
0.298525 0.123453 0.00127903 98239.4
0.299247 0.124571 0.0146 98239.8
0.299247 0.124571 0.00303516 98239.8
0.299247 0.124571 0 98239.8
0.303341 0.135931 0.00160326 98240.6
0.303341 0.135931 0.0129967 98240.6
0.301529 0.129826 0.0073 98242.2
0.303703 0.137332 0.0146 98239.9
0.303703 0.137332 0.0138777 98239.9
0.303703 0.137332 0 98239.9
0.302879 0.134948 0 98239.9
0.302879 0.134948 0.0146 98239.9
0.304 0.138086 0 98239.8
0.304 0.138086 0.000862538 98239.8
0.303877 0.137594 0.000298858 98239.9
0.303877 0.137594 0.0143011 98239.9
0.304 0.138086 0.0146 98239.8
0.31 0.148608 0 98232.3
0.309137 0.14826 0.0125014 98232.9
0.309137 0.14826 0.00209857 98232.9
0.31 0.148608 0.0128992 98232.3
0.31 0.148608 0.0146 98232.3
0.306129 0.145566 0.0073 98235.5
0.305653 0.140849 0 98237.8
0.305653 0.140849 0.0146 98237.8
0.310297 0.149461 0.0138751 98230.2
0.310297 0.149461 0.000724868 98230.2
0.315435 0.148893 0.0132254 98230.6
0.315435 0.148893 0.00137461 98230.6
0.315999 0.146478 0 98234.6
0.315999 0.146478 0.0104624 98234.6
0.315999 0.146478 0.0146 98234.6
0.314696 0.147323 0 98234.5
0.314696 0.147323 0.0146 98234.5
0.317561 0.110396 0.0129834 98234.3
0.31943 0.111809 0.0146 98234.3
0.317561 0.110396 0.00161662 98234.3
0.31943 0.111809 0.00355108 98234.3
0.31943 0.111809 0 98234.3
0.320875 0.117604 0.00707668 98236.6
0.323962 0.124571 0.0146 98238.6
0.323962 0.124571 0.00824153 98238.6
0.323962 0.124571 0 98238.6
0.32093 0.11627 0 98235
0.32093 0.11627 0.0146 98235
0.326093 0.130931 0.00729223 98240.7
0.323733 0.137332 0.0146 98238.6
0.323733 0.137332 0.00800483 98238.6
0.323733 0.137332 0 98238.6
0.323871 0.131693 0 98240
0.323871 0.131693 0.0146 98240
0.321818 0.142596 0 98237.8
0.321137 0.14198 0.0073 98241.8
0.321818 0.142596 0.0146 98237.8
