# U  POINT_DATA 321
# x y z  U_x U_y U_z
0.20313 0.0730043 0 0.979444 -0.363917 0
0.202869 0.07326 0.0142993 0.977693 -0.368206 0
0.202869 0.07326 0.000300683 0.977693 -0.368206 0
0.20313 0.0730043 0.0140068 0.979444 -0.363917 0
0.20313 0.0730043 0.0146 0.979444 -0.363917 0
0.201921 0.0735228 0.0146 0.969334 -0.374419 0
0.201921 0.0735228 0.0132089 0.969334 -0.374419 0
0.201921 0.0735228 0 0.969334 -0.374419 0
0.202667 0.0730574 0 0.97614 -0.366381 0
0.202667 0.0730574 0.0146 0.97614 -0.366381 0
0.215826 0.0699652 0 1.09662 -0.218074 0
0.213789 0.0714749 0.0122571 1.08592 -0.259208 0
0.213789 0.0714749 0.00234289 1.08592 -0.259208 0
0.215826 0.0699652 0.01053 1.09662 -0.218074 0
0.215826 0.0699652 0.0146 1.09662 -0.218074 0
0.2035 0.0731515 0.0141752 0.982518 -0.364518 0
0.2035 0.0731515 0.000424751 0.982518 -0.364518 0
0.212719 0.0703997 0 1.07902 -0.243769 0
0.212719 0.0703997 0.0146 1.07902 -0.243769 0
0.228522 0.0679091 0 1.14597 0.00674544 0
0.22474 0.0697217 0.0073 1.12815 -0.110808 0
0.228522 0.0679091 0.00817777 1.14597 0.00674544 0
0.228522 0.0679091 0.0146 1.14597 0.00674544 0
0.218892 0.0704411 0.0110744 1.10713 -0.216628 0
0.218892 0.0704411 0.00352563 1.10713 -0.216628 0
0.223713 0.0686892 0 1.12514 -0.0559925 0
0.223713 0.0686892 0.0146 1.12514 -0.0559925 0
0.241217 0.06738 0 1.13647 0.292825 0
0.241217 0.06738 0.00757242 1.13647 0.292825 0
0.234891 0.0665451 0.00730809 1.15539 0.0755617 0
0.241217 0.06738 0.0146 1.13647 0.292825 0
0.235355 0.0676294 0 1.12717 0.177848 0
0.235355 0.0676294 0.0146 1.12717 0.177848 0
0.253913 0.0703987 0 1.10145 0.603987 0
0.248023 0.0689012 0.00747563 1.13565 0.436477 0
0.253913 0.0703987 0.011026 1.10145 0.603987 0
0.253913 0.0703987 0.0146 1.10145 0.603987 0
0.250006 0.0695953 0 1.11352 0.508223 0
0.250006 0.0695953 0.0146 1.11352 0.508223 0
0.255461 0.071967 0.0128201 1.09593 0.64742 0
0.255461 0.071967 0.00177985 1.09593 0.64742 0
0.259531 0.0735228 0.0146 1.08225 0.750005 0
0.259531 0.0735228 0.00646079 1.08225 0.750005 0
0.259531 0.0735228 0 1.08225 0.750005 0
0.177739 0.0827208 0 0.765785 -0.505131 0
0.175928 0.0844646 0.0125177 0.748995 -0.518538 0
0.175928 0.0844646 0.00208233 0.748995 -0.518538 0
0.177739 0.0827208 0.0105227 0.765785 -0.505131 0
0.177739 0.0827208 0.0146 0.765785 -0.505131 0
0.169762 0.0862847 0.0146 0.70661 -0.523882 0
0.169762 0.0862847 0.00542682 0.70661 -0.523882 0
0.169762 0.0862847 0 0.70661 -0.523882 0
0.174835 0.0833659 0 0.745116 -0.506548 0
0.174835 0.0833659 0.0146 0.745116 -0.506548 0
0.190435 0.0781088 0 0.882233 -0.46838 0
0.183634 0.0813854 0.00712628 0.809004 -0.508521 0
0.190435 0.0781088 0.00524653 0.882233 -0.46838 0
0.190435 0.0781088 0.0146 0.882233 -0.46838 0
0.184487 0.0803056 0 0.842037 -0.491627 0
0.184487 0.0803056 0.0146 0.842037 -0.491627 0
0.193969 0.0770757 0 0.916128 -0.429363 0
0.192801 0.0759015 0.00272129 0.887021 -0.445909 0
0.193969 0.0770757 0.0146 0.916128 -0.429363 0
0.192801 0.0759015 0.0118787 0.887021 -0.445909 0
0.266609 0.0775123 0 1.06567 0.927469 0
0.266609 0.0775123 0.00456409 1.06567 0.927469 0
0.264869 0.0752711 0.00200009 1.06548 0.881025 0
0.264869 0.0752711 0.0125999 1.06548 0.881025 0
0.266609 0.0775123 0.0146 1.06567 0.927469 0
0.27137 0.0814989 0.0073 1.04922 1.05023 0
0.277145 0.0862847 0.0146 1.02032 1.17827 0
0.277145 0.0862847 0.0121165 1.02032 1.17827 0
0.277145 0.0862847 0 1.02032 1.17827 0
0.152348 0.0941776 0 0.584366 -0.536238 0
0.149864 0.0965496 0.0117432 0.564461 -0.544397 0
0.149864 0.0965496 0.00285678 0.564461 -0.544397 0
0.152348 0.0941776 0.00902966 0.584366 -0.536238 0
0.152348 0.0941776 0.0146 0.584366 -0.536238 0
0.141168 0.0990467 0.0146 0.519951 -0.534901 0
0.141168 0.0990467 0.00174281 0.519951 -0.534901 0
0.141168 0.0990467 0 0.519951 -0.534901 0
0.148557 0.0952362 0 0.561564 -0.531142 0
0.148557 0.0952362 0.0146 0.561564 -0.531142 0
0.165043 0.0885236 0 0.662147 -0.535867 0
0.165043 0.0885236 0.00256135 0.662147 -0.535867 0
0.159561 0.0906569 0.00763164 0.629992 -0.542387 0
0.165043 0.0885236 0.0146 0.662147 -0.535867 0
0.158008 0.0919747 0 0.596434 -0.543512 0
0.158008 0.0919747 0.0146 0.596434 -0.543512 0
0.166844 0.0880947 0 0.672642 -0.53993 0
0.166022 0.0872681 0.00112503 0.681705 -0.528069 0
0.166844 0.0880947 0.0146 0.672642 -0.53993 0
0.166022 0.0872681 0.013475 0.681705 -0.528069 0
0.279304 0.0886222 0 1.00496 1.23004 0
0.279304 0.0886222 0.00267412 1.00496 1.23004 0
0.278566 0.0870271 0.000849214 1.01601 1.20333 0
0.278566 0.0870271 0.0137508 1.01601 1.20333 0
0.279304 0.0886222 0.0146 1.00496 1.23004 0
0.28349 0.0948394 0.0073 0.968662 1.35777 0
0.287235 0.0990467 0.0146 0.950909 1.39907 0
0.287235 0.0990467 0.00912068 0.950909 1.39907 0
0.287235 0.0990467 0 0.950909 1.39907 0
0.114261 0.109376 0 0.384546 -0.507348 0
0.113032 0.110574 0.0131871 0.377099 -0.509857 0
0.113032 0.110574 0.00141291 0.377099 -0.509857 0
0.114261 0.109376 0.0118171 0.384546 -0.507348 0
0.114261 0.109376 0.0146 0.384546 -0.507348 0
0.107312 0.111809 0.0146 0.350337 -0.502003 0
0.107312 0.111809 0.00660914 0.350337 -0.502003 0
0.107312 0.111809 0 0.350337 -0.502003 0
0.112198 0.109735 0 0.375805 -0.504203 0
0.112198 0.109735 0.0146 0.375805 -0.504203 0
0.126957 0.105087 0 0.443303 -0.524876 0
0.122912 0.107743 0.0073 0.417372 -0.526659 0
0.126957 0.105087 0.00691031 0.443303 -0.524876 0
0.126957 0.105087 0.0146 0.443303 -0.524876 0
0.11666 0.109397 0.0118407 0.391341 -0.514825 0
0.11666 0.109397 0.00275931 0.391341 -0.514825 0
0.121815 0.10664 0 0.419598 -0.518349 0
0.121815 0.10664 0.0146 0.419598 -0.518349 0
0.139652 0.0997831 0 0.510962 -0.534772 0
0.139652 0.0997831 0.000842441 0.510962 -0.534772 0
0.138877 0.0998258 0.000891363 0.506748 -0.533436 0
0.138877 0.0998258 0.0137086 0.506748 -0.533436 0
0.139652 0.0997831 0.0146 0.510962 -0.534772 0
0.131526 0.10364 0 0.458829 -0.530087 0
0.130517 0.102625 0.0073 0.45584 -0.525424 0
0.131526 0.10364 0.0146 0.458829 -0.530087 0
0.140272 0.0996701 0 0.512153 -0.532202 0
0.139975 0.0993716 0.000371772 0.514597 -0.53371 0
0.140272 0.0996701 0.0146 0.512153 -0.532202 0
0.139975 0.0993716 0.0142282 0.514597 -0.53371 0
0.292 0.105697 0 0.915001 1.49333 0
0.292 0.105697 0.00760759 0.915001 1.49333 0
0.28975 0.101308 0.00258701 0.932021 1.4798 0
0.28975 0.101308 0.012013 0.932021 1.4798 0
0.292 0.105697 0.0146 0.915001 1.49333 0
0.0634783 0.122679 0 0.186686 -0.459261 0
0.0624266 0.123513 0.0133905 0.182482 -0.460779 0
0.0624266 0.123513 0.00120946 0.182482 -0.460779 0
0.0634783 0.122679 0.0124357 0.186686 -0.459261 0
0.0634783 0.122679 0.0146 0.186686 -0.459261 0
0.0524616 0.124571 0.0146 0.15057 -0.452206 0
0.0524616 0.124571 0.00193087 0.15057 -0.452206 0
0.0524616 0.124571 0 0.15057 -0.452206 0
0.0617533 0.122837 0 0.181193 -0.457903 0
0.0617533 0.122837 0.0146 0.181193 -0.457903 0
0.0761739 0.120224 0 0.230865 -0.468341 0
0.0735818 0.121965 0.0116191 0.219581 -0.470617 0
0.0735818 0.121965 0.00298088 0.219581 -0.470617 0
0.0761739 0.120224 0.00962776 0.230865 -0.468341 0
0.0761739 0.120224 0.0146 0.230865 -0.468341 0
0.0648855 0.123156 0.0129817 0.190019 -0.462844 0
0.0648855 0.123156 0.00161832 0.190019 -0.462844 0
0.0724081 0.120785 0 0.218495 -0.464915 0
0.0724081 0.120785 0.0146 0.218495 -0.464915 0
0.0888696 0.117362 0 0.275136 -0.482118 0
0.0822569 0.119536 0.00719849 0.245589 -0.477721 0
0.0888696 0.117362 0.00635294 0.275136 -0.482118 0
0.0888696 0.117362 0.0146 0.275136 -0.482118 0
0.0830107 0.118681 0 0.25499 -0.476621 0
0.0830107 0.118681 0.0146 0.25499 -0.476621 0
0.101565 0.113857 0 0.323097 -0.499942 0
0.101565 0.113857 0.00234299 0.323097 -0.499942 0
0.0996459 0.113738 0.00220717 0.313325 -0.492172 0
0.0996459 0.113738 0.0123928 0.313325 -0.492172 0
0.101565 0.113857 0.0146 0.323097 -0.499942 0
0.0933956 0.116358 0 0.291232 -0.495655 0
0.0924037 0.115361 0.0073 0.283155 -0.482681 0
0.0933956 0.116358 0.0146 0.291232 -0.495655 0
0.103294 0.113547 0 0.330558 -0.502729 0
0.102604 0.112853 0.00119494 0.327167 -0.495881 0
0.103294 0.113547 0.0146 0.330558 -0.502729 0
0.102604 0.112853 0.0134051 0.327167 -0.495881 0
0.0126957 0.128229 0 0.0362572 -0.438521 0
0.0126957 0.128229 0.00418531 0.0362572 -0.438521 0
0.00993291 0.127348 0.00317715 0.0285429 -0.433379 0
0.00993291 0.127348 0.0114228 0.0285429 -0.433379 0
0.0126957 0.128229 0.0146 0.0362572 -0.438521 0
0.00284994 0.127435 0.0113226 0.00838951 -0.197405 0
0 0.128424 0.0146 0 0 0
0.00284994 0.127435 0.00327743 0.00838951 -0.197405 0
0 0.128424 0.00440848 0 0 0
0 0.128424 0 0 0 0
0.0037857 0.128376 0 0.0108995 -0.138187 0
0.0037857 0.128376 0.0146 0.0108995 -0.138187 0
0.0253913 0.127614 0 0.0706554 -0.441538 0
0.0253913 0.127614 0.00348154 0.0706554 -0.441538 0
0.0231209 0.126853 0.00261091 0.0641714 -0.436387 0
0.0231209 0.126853 0.0119891 0.0641714 -0.436387 0
0.0253913 0.127614 0.0146 0.0706554 -0.441538 0
0.0162012 0.128094 0 0.0453029 -0.439748 0
0.0152611 0.127149 0.00295029 0.0424601 -0.434245 0
0.0152611 0.127149 0.0116497 0.0424601 -0.434245 0
0.0162012 0.128094 0.0146 0.0453029 -0.439748 0
0.038087 0.126529 0 0.106693 -0.446184 0
0.038087 0.126529 0.00224014 0.106693 -0.446184 0
0.036697 0.125968 0.00159843 0.102851 -0.44182 0
0.036697 0.125968 0.0130016 0.102851 -0.44182 0
0.038087 0.126529 0.0146 0.106693 -0.446184 0
0.0282447 0.127439 0 0.0782642 -0.443532 0
0.0273566 0.126546 0.00226008 0.0759426 -0.437652 0
0.0273566 0.126546 0.0123399 0.0759426 -0.437652 0
0.0282447 0.127439 0.0146 0.0782642 -0.443532 0
0.0507826 0.124876 0 0.144955 -0.451487 0
0.0507826 0.124876 0.000349861 0.144955 -0.451487 0
0.0505812 0.124773 0.000231564 0.144511 -0.450577 0
0.0505812 0.124773 0.0143684 0.144511 -0.450577 0
0.0507826 0.124876 0.0146 0.144955 -0.451487 0
0.0398962 0.126389 0 0.11126 -0.448176 0
0.0392391 0.125729 0.00132501 0.110249 -0.443118 0
0.0392391 0.125729 0.013275 0.110249 -0.443118 0
0.0398962 0.126389 0.0146 0.11126 -0.448176 0
0.0510631 0.124852 0 0.145635 -0.451971 0
0.0509467 0.124736 0.000188748 0.145677 -0.450864 0
0.0510631 0.124852 0.0146 0.145635 -0.451971 0
0.0509467 0.124736 0.0144113 0.145677 -0.450864 0
0.299887 0.0539819 0.00714823 0.41566 1.10542 0
0.302207 0.0607609 0.0146 0.526352 0.933439 0
0.302207 0.0607609 0.0102385 0.526352 0.933439 0
0.302207 0.0607609 0 0.526352 0.933439 0
0.30017 0.047999 0 -2.20844e-16 -3.99297e-16 0
0.30017 0.047999 0.00528193 0 0 0
0.30017 0.047999 0.0146 0 0 0
0.301468 0.055376 0 0.23479 0.424513 0
0.301468 0.055376 0.0146 0.23479 0.424513 0
0.304 0.0654554 0 0.593318 0.99726 0
0.303223 0.0624127 0.00188966 0.532413 0.911175 0
0.304 0.0654554 0.00537062 0.593318 0.99726 0
0.303223 0.0624127 0.0127103 0.532413 0.911175 0
0.304 0.0654554 0.0146 0.593318 0.99726 0
0.305375 0.0705971 0.0112529 0.912932 1.43338 0
0.30707 0.0735228 0.0146 0.759589 1.35555 0
0.305375 0.0705971 0.00334714 0.912932 1.43338 0
0.30707 0.0735228 0.00747204 0.759589 1.35555 0
0.30707 0.0735228 0 0.759589 1.35555 0
0.31 0.0825634 0 0.810293 1.4473 0
0.308736 0.0762099 0.00307413 0.741123 1.36267 0
0.31 0.0825634 0.0103427 0.810293 1.4473 0
0.308736 0.0762099 0.0115259 0.741123 1.36267 0
0.31 0.0825634 0.0146 0.810293 1.4473 0
0.310551 0.0851113 0.0132576 0.891946 1.50969 0
0.311221 0.0862847 0.0146 0.840434 1.4827 0
0.310551 0.0851113 0.00134243 0.891946 1.50969 0
0.311221 0.0862847 0.00297152 0.840434 1.4827 0
0.311221 0.0862847 0 0.840434 1.4827 0
0.312309 0.0919693 0.00703443 0.872846 1.56178 0
0.314381 0.0990467 0.0146 0.828929 1.57335 0
0.314381 0.0990467 0.0106613 0.828929 1.57335 0
0.314381 0.0990467 0 0.828929 1.57335 0
0.312522 0.0916503 0 0.859908 1.53893 0
0.312522 0.0916503 0.0146 0.859908 1.53893 0
0.29304 0.109597 0.0120697 0.900397 1.51925 0
0.29304 0.109597 0.00253027 0.900397 1.51925 0
0.294312 0.111809 0.0146 0.889017 1.53562 0
0.294312 0.111809 0.00562554 0.889017 1.53562 0
0.294312 0.111809 0 0.889017 1.53562 0
0.315999 0.105475 0 0.818196 1.61619 0
0.31526 0.100619 0.00179893 0.821645 1.5844 0
0.315999 0.105475 0.00735364 0.818196 1.61619 0
0.31526 0.100619 0.0128011 0.821645 1.5844 0
0.315999 0.105475 0.0146 0.818196 1.61619 0
0.298 0.121328 0 0.847334 1.58835 0
0.298 0.121328 0.0108908 0.847334 1.58835 0
0.296272 0.115484 0.0073 0.870853 1.57067 0
0.298 0.121328 0.0146 0.847334 1.58835 0
0.298525 0.123453 0.013321 0.839269 1.59762 0
0.298525 0.123453 0.00127903 0.839269 1.59762 0
0.299247 0.124571 0.0146 0.83446 1.60477 0
0.299247 0.124571 0.00303516 0.83446 1.60477 0
0.299247 0.124571 0 0.83446 1.60477 0
0.303341 0.135931 0.00160326 0.788044 1.6511 0
0.303341 0.135931 0.0129967 0.788044 1.6511 0
0.301529 0.129826 0.0073 0.810748 1.64566 0
0.303703 0.137332 0.0146 0.779076 1.64838 0
0.303703 0.137332 0.0138777 0.779076 1.64838 0
0.303703 0.137332 0 0.779076 1.64838 0
0.302879 0.134948 0 0.792683 1.64168 0
0.302879 0.134948 0.0146 0.792683 1.64168 0
0.304 0.138086 0 0.774315 1.64094 0
0.304 0.138086 0.000862538 0.774315 1.64094 0
0.303877 0.137594 0.000298858 0.780771 1.65152 0
0.303877 0.137594 0.0143011 0.780771 1.65152 0
0.304 0.138086 0.0146 0.774315 1.64094 0
0.31 0.148608 0 0.773955 1.61804 0
0.309137 0.14826 0.0125014 0.77309 1.62685 0
0.309137 0.14826 0.00209857 0.77309 1.62685 0
0.31 0.148608 0.0128992 0.773955 1.61804 0
0.31 0.148608 0.0146 0.773955 1.61804 0
0.306129 0.145566 0.0073 0.739111 1.60538 0
0.305653 0.140849 0 0.779356 1.64106 0
0.305653 0.140849 0.0146 0.779356 1.64106 0
0.310297 0.149461 0.0138751 0.773466 1.61604 0
0.310297 0.149461 0.000724868 0.773466 1.61604 0
0.315435 0.148893 0.0132254 0.79304 1.54882 0
0.315435 0.148893 0.00137461 0.79304 1.54882 0
0.315999 0.146478 0 0.796112 1.56421 0
0.315999 0.146478 0.0104624 0.796112 1.56421 0
0.315999 0.146478 0.0146 0.796112 1.56421 0
0.314696 0.147323 0 0.793253 1.55493 0
0.314696 0.147323 0.0146 0.793253 1.55493 0
0.317561 0.110396 0.0129834 0.81705 1.66334 0
0.31943 0.111809 0.0146 0.788466 1.5605 0
0.317561 0.110396 0.00161662 0.81705 1.66334 0
0.31943 0.111809 0.00355108 0.788466 1.5605 0
0.31943 0.111809 0 0.788466 1.5605 0
0.320875 0.117604 0.00707668 0.814351 1.68721 0
0.323962 0.124571 0.0146 0.814843 1.53772 0
0.323962 0.124571 0.00824153 0.814843 1.53772 0
0.323962 0.124571 0 0.814843 1.53772 0
0.32093 0.11627 0 0.819138 1.58139 0
0.32093 0.11627 0.0146 0.819138 1.58139 0
0.326093 0.130931 0.00729223 0.84759 1.57043 0
0.323733 0.137332 0.0146 0.895273 1.53535 0
0.323733 0.137332 0.00800483 0.895273 1.53535 0
0.323733 0.137332 0 0.895273 1.53535 0
0.323871 0.131693 0 0.900879 1.5397 0
0.323871 0.131693 0.0146 0.900879 1.5397 0
0.321818 0.142596 0 0.845301 1.46433 0
0.321137 0.14198 0.0073 0.806579 1.65099 0
0.321818 0.142596 0.0146 0.845301 1.46433 0
