# p  POINT_DATA 2780
# x y z  p
0.00423188 0.0852413 0 95506.5
0.00352797 0.0855772 0.0121715 95502.2
0.00352797 0.0855772 0.00242852 95502.2
0.00423188 0.0852413 0.0110188 95506.5
0.00423188 0.0852413 0.0146 95506.5
0.00067865 0.0856026 0.0122587 95502.2
0.00067865 0.0856026 0.00234134 95502.2
0 0.0852932 0.0146 95506.3
0 0.0852932 0.011197 95506.3
0 0.0852932 0 95506.3
0.00320385 0.0852513 0 95506.5
0.00320385 0.0852513 0.0146 95506.5
0.00846377 0.0851367 0 95506.8
0.00767052 0.0854874 0.0118633 95502.2
0.00767052 0.0854874 0.00273671 95502.2
0.00846377 0.0851367 0.0106598 95506.8
0.00846377 0.0851367 0.0146 95506.8
0.00497497 0.0855378 0.0120363 95502.3
0.00497497 0.0855378 0.00256366 95502.3
0.00734333 0.0851585 0 95506.8
0.00734333 0.0851585 0.0146 95506.8
0.0126957 0.0850439 0 95506.9
0.0118144 0.0853989 0.0115596 95502
0.0118144 0.0853989 0.00304043 95502
0.0126957 0.0850439 0.0103414 95506.9
0.0126957 0.0850439 0.0146 95506.9
0.00930204 0.0854421 0.011708 95502.1
0.00930204 0.0854421 0.00289203 95502.1
0.011482 0.0850647 0 95507
0.011482 0.0850647 0.0146 95507
0.0169275 0.0849694 0 95507
0.0159741 0.0853263 0.0113105 95501.9
0.0159741 0.0853263 0.0032895 95501.9
0.0169275 0.0849694 0.0100857 95507
0.0169275 0.0849694 0.0146 95507
0.013616 0.0853596 0.0114248 95501.9
0.013616 0.0853596 0.00317518 95501.9
0.0156369 0.0849874 0 95507.1
0.0156369 0.0849874 0.0146 95507.1
0.0211594 0.0849043 0 95507.1
0.0201407 0.0852608 0.0110856 95501.7
0.0201407 0.0852608 0.00351442 95501.7
0.0211594 0.0849043 0.00986216 95507.1
0.0211594 0.0849043 0.0146 95507.1
0.0179184 0.0852887 0.0111816 95501.8
0.0179184 0.0852887 0.00341842 95501.8
0.0198028 0.084921 0 95507.2
0.0198028 0.084921 0.0146 95507.2
0.0253913 0.0848454 0 95507.1
0.0253913 0.0848454 0.00966001 95507.1
0.0243119 0.0851998 0.0073 95501.6
0.0253913 0.0848454 0.0146 95507.1
0.0222146 0.085224 0.0109595 95501.7
0.0222146 0.085224 0.00364052 95501.7
0.0239754 0.0848614 0 95507.2
0.0239754 0.0848614 0.0146 95507.2
0.0296232 0.0847903 0 95507.2
0.0296232 0.0847903 0.00947085 95507.2
0.0274964 0.0851521 0.00728757 95501.5
0.0296232 0.0847903 0.0146 95507.2
0.0281522 0.084806 0 95507.2
0.0281522 0.084806 0.0146 95507.2
0.0338551 0.084737 0 95507.2
0.0338551 0.084737 0.00928803 95507.2
0.0317292 0.0850933 0.00728853 95501.4
0.0338551 0.084737 0.0146 95507.2
0.0323313 0.084753 0 95507.3
0.0323313 0.084753 0.0146 95507.3
0.038087 0.0846826 0 95507.3
0.038087 0.0846826 0.00910145 95507.3
0.0359617 0.0850338 0.00728923 95501.3
0.038087 0.0846826 0.0146 95507.3
0.0365113 0.0847009 0 95507.3
0.0365113 0.0847009 0.0146 95507.3
0.0423188 0.0846257 0 95507.3
0.0423188 0.0846257 0.00890615 95507.3
0.0401941 0.0849634 0.00728988 95501.3
0.0423188 0.0846257 0.0146 95507.3
0.0406898 0.0846472 0 95507.4
0.0406898 0.0846472 0.0146 95507.4
0.0465507 0.0845676 0 95507.4
0.0465507 0.0845676 0.00870676 95507.4
0.0444266 0.0848857 0.00729057 95501.3
0.0465507 0.0845676 0.0146 95507.4
0.0448656 0.0845908 0 95507.5
0.0448656 0.0845908 0.0146 95507.5
0.0507826 0.0845091 0 95507.5
0.0507826 0.0845091 0.00850571 95507.5
0.0486592 0.0848036 0.00729138 95501.3
0.0507826 0.0845091 0.0146 95507.5
0.0490402 0.0845332 0 95507.5
0.0490402 0.0845332 0.0146 95507.5
0.0550145 0.0844503 0 95507.5
0.0550145 0.0844503 0.00830394 95507.5
0.0528919 0.0847173 0.00729235 95501.2
0.0550145 0.0844503 0.0146 95507.5
0.0532146 0.0844754 0 95507.5
0.0532146 0.0844754 0.0146 95507.5
0.0592464 0.0843916 0 95507.5
0.0592464 0.0843916 0.00810242 95507.5
0.0571247 0.0846269 0.00729346 95501.1
0.0592464 0.0843916 0.0146 95507.5
0.0573889 0.0844176 0 95507.5
0.0573889 0.0844176 0.0146 95507.5
0.0634783 0.0843332 0 95507.5
0.0634783 0.0843332 0.00790208 95507.5
0.0613577 0.0845326 0.0072947 95501.1
0.0634783 0.0843332 0.0146 95507.5
0.0615635 0.08436 0 95507.6
0.0615635 0.08436 0.0146 95507.6
0.0677101 0.0842755 0 95507.5
0.0677101 0.0842755 0.00770424 95507.5
0.0655908 0.0844349 0.00729605 95501.1
0.0677101 0.0842755 0.0146 95507.5
0.0657386 0.0843029 0 95507.6
0.0657386 0.0843029 0.0146 95507.6
0.071942 0.0842191 0 95507.6
0.071942 0.0842191 0.00751041 95507.6
0.0698239 0.0843344 0.00729748 95501.1
0.071942 0.0842191 0.0146 95507.6
0.0699146 0.0842467 0 95507.6
0.0699146 0.0842467 0.0146 95507.6
0.0761739 0.0841642 0 95507.6
0.0761739 0.0841642 0.0073221 95507.6
0.0740571 0.0842318 0.00729895 95501
0.0761739 0.0841642 0.0146 95507.6
0.0740919 0.0841919 0 95507.6
0.0740919 0.0841919 0.0146 95507.6
0.0804058 0.0841114 0 95507.6
0.0804058 0.0841114 0.00714093 95507.6
0.0782902 0.0841285 0.00730043 95501.2
0.0804058 0.0841114 0.0146 95507.6
0.078271 0.0841388 0 95507.7
0.078271 0.0841388 0.0146 95507.7
0.0846377 0.0840613 0 95507.6
0.0846377 0.0840613 0.00696895 95507.6
0.0825232 0.0840319 0.00730171 95501.8
0.0846377 0.0840613 0.0146 95507.6
0.0824524 0.0840881 0 95507.7
0.0824524 0.0840881 0.0146 95507.7
0.0888696 0.0840146 0 95507.6
0.0888696 0.0840146 0.00680864 95507.6
0.0867559 0.0839452 0.00730264 95502.2
0.0888696 0.0840146 0.0146 95507.6
0.0866366 0.0840402 0 95507.7
0.0866366 0.0840402 0.0146 95507.7
0.0931014 0.0839721 0 95507.7
0.0931014 0.0839721 0.0066627 95507.7
0.0909883 0.0838686 0.00730322 95502.7
0.0931014 0.0839721 0.0146 95507.7
0.0908245 0.0839959 0 95507.7
0.0908245 0.0839959 0.0146 95507.7
0.0973333 0.0839345 0 95507.7
0.0973333 0.0839345 0.00653389 95507.7
0.0952204 0.0838025 0.00730345 95503
0.0973333 0.0839345 0.0146 95507.7
0.0950167 0.083956 0 95507.7
0.0950167 0.083956 0.0146 95507.7
0.101565 0.0839029 0 95507.7
0.101565 0.0839029 0.00642519 95507.7
0.0994522 0.0837471 0.00730332 95503.3
0.101565 0.0839029 0.0146 95507.7
0.099214 0.0839213 0 95507.7
0.099214 0.0839213 0.0146 95507.7
0.105797 0.0838781 0 95507.7
0.105797 0.0838781 0.0063402 95507.7
0.103684 0.0837031 0.00730285 95503.5
0.105797 0.0838781 0.0146 95507.7
0.103417 0.0838927 0 95507.7
0.103417 0.0838927 0.0146 95507.7
0.110029 0.0838614 0 95507.8
0.110029 0.0838614 0.00628299 95507.8
0.107915 0.0836713 0.00730204 95503.7
0.110029 0.0838614 0.0146 95507.8
0.107628 0.0838714 0 95507.7
0.107628 0.0838714 0.0146 95507.7
0.114261 0.0838543 0 95507.8
0.114261 0.0838543 0.00625835 95507.8
0.112146 0.083653 0.00730091 95503.8
0.114261 0.0838543 0.0146 95507.8
0.111847 0.0838586 0 95507.8
0.111847 0.0838586 0.0146 95507.8
0.118493 0.0838583 0 95507.8
0.118493 0.0838583 0.00627235 95507.8
0.116376 0.0836501 0.00729948 95503.8
0.118493 0.0838583 0.0146 95507.8
0.116077 0.0838559 0 95507.8
0.116077 0.0838559 0.0146 95507.8
0.122725 0.0838748 0 95507.9
0.122725 0.0838748 0.00632886 95507.9
0.120607 0.0836653 0.00729796 95503.7
0.122725 0.0838748 0.0146 95507.9
0.120317 0.083865 0 95507.8
0.120317 0.083865 0.0146 95507.8
0.126957 0.0839052 0 95508
0.126957 0.0839052 0.00643313 95508
0.124838 0.0836997 0.00729648 95503.6
0.126957 0.0839052 0.0146 95508
0.124571 0.0838873 0 95507.9
0.124571 0.0838873 0.0146 95507.9
0.131188 0.0839518 0 95508
0.131188 0.0839518 0.00659319 95508
0.129068 0.0837587 0.00729524 95503.3
0.131188 0.0839518 0.0146 95508
0.128841 0.0839248 0 95507.9
0.128841 0.0839248 0.0146 95507.9
0.13542 0.0840168 0 95508.1
0.13542 0.0840168 0.00681618 95508.1
0.1333 0.0838479 0.00729476 95502.8
0.13542 0.0840168 0.0146 95508.1
0.133128 0.0839802 0 95507.9
0.133128 0.0839802 0.0146 95507.9
0.139652 0.0841025 0 95508.2
0.139652 0.0841025 0.00711031 95508.2
0.137533 0.0839757 0.00729584 95502.1
0.139652 0.0841025 0.0146 95508.2
0.137435 0.0840561 0 95508
0.137435 0.0840561 0.0146 95508
0.143884 0.0842117 0 95508.2
0.143884 0.0842117 0.00748509 95508.2
0.141768 0.0841549 0.00729991 95500.9
0.143884 0.0842117 0.0146 95508.2
0.141766 0.0841555 0 95508
0.141766 0.0841555 0.0146 95508
0.148116 0.0843475 0 95508.2
0.148116 0.0843475 0.00795127 95508.2
0.146007 0.0843809 0.00730761 95500.9
0.148116 0.0843475 0.0146 95508.2
0.146124 0.0842824 0 95507.9
0.146124 0.0842824 0.0146 95507.9
0.152348 0.0845127 0 95508.1
0.152348 0.0845127 0.00851832 95508.1
0.150248 0.0846315 0.00731864 95500.9
0.152348 0.0845127 0.0146 95508.1
0.150513 0.0844405 0 95507.8
0.150513 0.0844405 0.0146 95507.8
0.15658 0.0847046 0 95507.9
0.15658 0.0847046 0.00917691 95507.9
0.154492 0.0848974 0.00733229 95500.9
0.15658 0.0847046 0.0146 95507.9
0.154936 0.0846325 0 95507.6
0.154936 0.0846325 0.0146 95507.6
0.160812 0.0849217 0 95507.8
0.160812 0.0849217 0.009922 95507.8
0.158737 0.0851484 0.00734775 95501.2
0.160812 0.0849217 0.0146 95507.8
0.159392 0.084858 0 95507.4
0.159392 0.084858 0.0146 95507.4
0.165043 0.0851731 0 95507.6
0.164204 0.0854413 0.0117051 95502
0.164204 0.0854413 0.00289486 95502
0.165043 0.0851731 0.0107846 95507.6
0.165043 0.0851731 0.0146 95507.6
0.161765 0.0853265 0.0113111 95501.7
0.161765 0.0853265 0.0032889 95501.7
0.163883 0.0851181 0 95507.2
0.163883 0.0851181 0.0146 95507.2
0.169275 0.0854683 0 95507.3
0.168695 0.0857013 0.0125977 95502.9
0.168695 0.0857013 0.00200235 95502.9
0.169275 0.0854683 0.0117978 95507.3
0.169275 0.0854683 0.0146 95507.3
0.165774 0.0855507 0.0120808 95502.4
0.165774 0.0855507 0.00251921 95502.4
0.168419 0.0854238 0 95506.9
0.168419 0.0854238 0.0146 95506.9
0.173507 0.0858158 0 95506.6
0.173194 0.0859698 0.0135191 95503.9
0.173194 0.0859698 0.00108094 95503.9
0.173507 0.0858158 0.0129907 95506.6
0.173507 0.0858158 0.0146 95506.6
0.169779 0.0857782 0.0128616 95503.3
0.169779 0.0857782 0.00173841 95503.3
0.173014 0.0857885 0 95506.4
0.173014 0.0857885 0.0146 95506.4
0.177739 0.086229 0 95505.5
0.177704 0.0862496 0.0144793 95505.1
0.177704 0.0862496 0.000120702 95505.1
0.177739 0.086229 0.0144088 95505.5
0.177739 0.086229 0.0146 95505.5
0.17378 0.0860107 0.0136594 95504.2
0.17378 0.0860107 0.000940575 95504.2
0.17768 0.0862257 0 95505.4
0.17768 0.0862257 0.0146 95505.4
0.17777 0.0862539 0.0144942 95505.1
0.17777 0.0862539 0.000105776 95505.1
0.178228 0.0862847 0.0146 95505.3
0.178228 0.0862847 0.00168731 95505.3
0.178228 0.0862847 0 95505.3
0.181971 0.0866946 0 95506.3
0.181971 0.0866946 0.00140676 95506.3
0.181738 0.086519 0.00080395 95506.2
0.181738 0.086519 0.0137961 95506.2
0.181971 0.0866946 0.0146 95506.3
0.186203 0.0871913 0 95507.5
0.186203 0.0871913 0.00311139 95507.5
0.185661 0.0868297 0.00187045 95507.1
0.185661 0.0868297 0.0127296 95507.1
0.186203 0.0871913 0.0146 95507.5
0.182415 0.0867313 0 95506.2
0.182246 0.0865609 0.000947788 95506.1
0.182246 0.0865609 0.0136522 95506.1
0.182415 0.0867313 0.0146 95506.2
0.190435 0.0877813 0 95508.5
0.190435 0.0877813 0.00513642 95508.5
0.189468 0.0872567 0.00333596 95507.2
0.189468 0.0872567 0.011264 95507.2
0.190435 0.0877813 0.0146 95508.5
0.187226 0.0873136 0 95507.3
0.186903 0.0869887 0.00241595 95506.5
0.186903 0.0869887 0.0121841 95506.5
0.187226 0.0873136 0.0146 95507.3
0.194667 0.0884951 0 95508.6
0.194667 0.0884951 0.00758595 95508.6
0.192472 0.0878893 0.00720936 95504
0.194667 0.0884951 0.0146 95508.6
0.192209 0.088068 0 95507.7
0.192209 0.088068 0.0146 95507.7
0.198899 0.0892497 0 95507.4
0.198899 0.0892497 0.010176 95507.4
0.196897 0.0891981 0.00743136 95500.7
0.198899 0.0892497 0.0146 95507.4
0.197345 0.0889766 0 95506.9
0.197345 0.0889766 0.0146 95506.9
0.20313 0.0900255 0 95505.2
0.20276 0.0901663 0.0133219 95502
0.20276 0.0901663 0.00127811 95502
0.20313 0.0900255 0.0128386 95505.2
0.20313 0.0900255 0.0146 95505.2
0.199651 0.0897821 0.0120032 95501.2
0.199651 0.0897821 0.00259685 95501.2
0.202524 0.0899296 0 95504.9
0.202524 0.0899296 0.0146 95504.9
0.203391 0.0902771 0.0137022 95502.5
0.203391 0.0902771 0.00089781 95502.5
0.205812 0.0905387 0.0146 95503.6
0.205812 0.0905387 0.00925034 95503.6
0.205812 0.0905387 0 95503.6
0.207362 0.0908367 0 95504.3
0.207362 0.0908367 0.00102254 95504.3
0.20721 0.0906916 0.000524635 95504.2
0.20721 0.0906916 0.0140754 95504.2
0.207362 0.0908367 0.0146 95504.3
0.211594 0.091503 0 95506.7
0.211594 0.091503 0.0033095 95506.7
0.211069 0.0910664 0.00181096 95506.5
0.211069 0.0910664 0.012789 95506.5
0.211594 0.091503 0.0146 95506.7
0.2077 0.0908777 0 95504.2
0.20755 0.0907276 0.000648192 95504.2
0.20755 0.0907276 0.0139518 95504.2
0.2077 0.0908777 0.0146 95504.2
0.215826 0.0923738 0 95508.6
0.215826 0.0923738 0.00629824 95508.6
0.214734 0.0916365 0.0073 95507.2
0.215826 0.0923738 0.0146 95508.6
0.212805 0.0917557 0 95506.2
0.212357 0.0913052 0.00263067 95505.5
0.212357 0.0913052 0.0119693 95505.5
0.212805 0.0917557 0.0146 95506.2
0.220058 0.0938115 0 95506.5
0.220058 0.0938115 0.0112325 95506.5
0.218125 0.0932083 0.00751065 95501.1
0.220058 0.0938115 0.0146 95506.5
0.21862 0.093347 0 95506
0.21862 0.093347 0.0146 95506
0.220503 0.094345 0.0130636 95502
0.220503 0.094345 0.00153642 95502
0.223012 0.0947927 0.0146 95503.4
0.223012 0.0947927 0.0101904 95503.4
0.223012 0.0947927 0 95503.4
0.22429 0.0952169 0 95503.9
0.22429 0.0952169 0.00145575 95503.9
0.224077 0.0950069 0.000735016 95503.9
0.224077 0.0950069 0.013865 95503.9
0.22429 0.0952169 0.0146 95503.9
0.228522 0.096219 0 95506.6
0.228522 0.096219 0.00489508 95506.6
0.22776 0.0955588 0.00262945 95506.3
0.22776 0.0955588 0.0119705 95506.3
0.228522 0.096219 0.0146 95506.6
0.224823 0.0953283 0 95503.8
0.224583 0.0950873 0.00101111 95503.7
0.224583 0.0950873 0.0135889 95503.7
0.224823 0.0953283 0.0146 95503.8
0.232754 0.0976644 0 95506.1
0.232754 0.0976644 0.00985574 95506.1
0.230557 0.0966306 0.00720686 95501.9
0.232754 0.0976644 0.0146 95506.1
0.230705 0.0969873 0 95505
0.230705 0.0969873 0.0146 95505
0.233424 0.0983723 0.0122856 95500.8
0.233424 0.0983723 0.0023144 95500.8
0.236436 0.0990467 0.0146 95502.2
0.236436 0.0990467 0.0127043 95502.2
0.236436 0.0990467 0 95502.2
0.236986 0.0992632 0 95502.3
0.236986 0.0992632 0.000743269 95502.3
0.236878 0.0991548 0.000371094 95502.3
0.236878 0.0991548 0.0142289 95502.3
0.236986 0.0992632 0.0146 95502.3
0.241217 0.100501 0 95505.1
0.241217 0.100501 0.00498987 95505.1
0.240464 0.0998042 0.00259982 95504.9
0.240464 0.0998042 0.0120002 95504.9
0.241217 0.100501 0.0146 95505.1
0.237268 0.0993303 0 95502.3
0.237135 0.0991971 0.000516151 95502.2
0.237135 0.0991971 0.0140838 95502.2
0.237268 0.0993303 0.0146 95502.3
0.245449 0.102207 0 95504.1
0.245449 0.102207 0.0108477 95504.1
0.243297 0.101064 0.00725835 95500.4
0.245449 0.102207 0.0146 95504.1
0.243682 0.101524 0 95503.2
0.243682 0.101524 0.0146 95503.2
0.245923 0.102824 0.0129651 95500.1
0.245923 0.102824 0.00163488 95500.1
0.248004 0.103301 0.0146 95501.5
0.248004 0.103301 0.00881388 95501.5
0.248004 0.103301 0 95501.5
0.249681 0.104009 0 95502
0.249681 0.104009 0.00243163 95502
0.249334 0.10365 0.00119776 95502
0.249334 0.10365 0.0134022 95502
0.249681 0.104009 0.0146 95502
0.253913 0.105637 0 95503.5
0.253913 0.105637 0.00801847 95503.5
0.252688 0.104532 0.0073 95503.3
0.253913 0.105637 0.0146 95503.5
0.250812 0.104437 0 95501.6
0.250298 0.103921 0.00212836 95501.6
0.250298 0.103921 0.0124716 95501.6
0.250812 0.104437 0.0146 95501.6
0.254873 0.10659 0.0112876 95498.9
0.254873 0.10659 0.00331238 95498.9
0.258032 0.107555 0.0146 95499.9
0.258032 0.107555 0.0142091 95499.9
0.258032 0.107555 0 95499.9
0.258145 0.107613 0 95499.9
0.258145 0.107613 0.000199878 95499.9
0.258117 0.107583 9.71266e-05 95499.9
0.258117 0.107583 0.0145029 95499.9
0.258145 0.107613 0.0146 95499.9
0.262377 0.109296 0 95501.9
0.262377 0.109296 0.0059766 95501.9
0.261512 0.108424 0.00298519 95502
0.261512 0.108424 0.0116148 95502
0.262377 0.109296 0.0146 95501.9
0.258231 0.107641 0 95499.9
0.258188 0.107598 0.000147746 95499.9
0.258188 0.107598 0.0144523 95499.9
0.258231 0.107641 0.0146 95499.9
0.266609 0.111235 0 95500.2
0.265807 0.111002 0.0118326 95498.5
0.265807 0.111002 0.00276739 95498.5
0.266609 0.111235 0.0126323 95500.2
0.266609 0.111235 0.0146 95500.2
0.263948 0.11023 0.0073 95498.5
0.265618 0.110813 0 95499.8
0.265618 0.110813 0.0146 95499.8
0.266847 0.111569 0.0137764 95498.5
0.266847 0.111569 0.000823584 95498.5
0.267815 0.111809 0.0146 95499.2
0.267815 0.111809 0.0041633 95499.2
0.267815 0.111809 0 95499.2
0.270841 0.113145 0 95500.1
0.270841 0.113145 0.00458554 95500.1
0.270202 0.112451 0.00220323 95500.1
0.270202 0.112451 0.0123968 95500.1
0.270841 0.113145 0.0146 95500.1
0.275072 0.115103 0 95499.6
0.275072 0.115103 0.0113062 95499.6
0.272928 0.113862 0.00726728 95498.5
0.275072 0.115103 0.0146 95499.6
0.273358 0.114339 0 95499
0.273358 0.114339 0.0146 95499
0.275469 0.115664 0.0132311 95497.5
0.275469 0.115664 0.00136889 95497.5
0.27704 0.116063 0.0146 95498.2
0.27704 0.116063 0.00678641 95498.2
0.27704 0.116063 0 95498.2
0.279304 0.117122 0 95498.6
0.279304 0.117122 0.00363584 95498.6
0.278796 0.116573 0.00175315 95498.6
0.278796 0.116573 0.0128468 95498.6
0.279304 0.117122 0.0146 95498.6
0.283536 0.11902 0 95498.8
0.283536 0.11902 0.0101487 95498.8
0.281199 0.117527 0.00704585 95498.9
0.283536 0.11902 0.0146 95498.8
0.281232 0.118 0 95498.1
0.281232 0.118 0.0146 95498.1
0.284088 0.119762 0.0126973 95496.7
0.284088 0.119762 0.00190267 95496.7
0.286221 0.120317 0.0146 95497.2
0.286221 0.120317 0.00926238 95497.2
0.286221 0.120317 0 95497.2
0.287768 0.121064 0 95497.3
0.287768 0.121064 0.00256627 95497.3
0.287411 0.120676 0.00123299 95497.2
0.287411 0.120676 0.013367 95497.2
0.287768 0.121064 0.0146 95497.3
0.292 0.122471 0 95498.5
0.292 0.122471 0.0073957 95498.5
0.290729 0.121594 0.0073 95498.6
0.292 0.122471 0.0146 95498.5
0.288857 0.121411 0 95497.3
0.28848 0.121033 0.00245756 95497.5
0.28848 0.121033 0.0121424 95497.5
0.288857 0.121411 0.0146 95497.3
0.298 0.0486801 0 95798.6
0.297887 0.0482398 0.000826714 95792.2
0.298 0.0486801 0.00233762 95798.6
0.297887 0.0482398 0.0137733 95792.2
0.298 0.0486801 0.0146 95798.6
0.297814 0.047999 0 95783.9
0.297814 0.047999 0.0132451 95783.9
0.297814 0.047999 0.0146 95783.9
0.298348 0.0515128 0.0120599 95811.6
0.299639 0.0522529 0.0146 95818.7
0.298348 0.0515128 0.00254005 95811.6
0.299639 0.0522529 0.0119687 95818.7
0.299639 0.0522529 0 95818.7
0.3 0.0526903 0 95822.1
0.29991 0.0524435 0.000653911 95821.1
0.3 0.0526903 0.001501 95822.1
0.29991 0.0524435 0.0139461 95821.1
0.3 0.0526903 0.0146 95822.1
0.302 0.0551272 0 95830
0.301414 0.0534992 0.0073 95818.1
0.302 0.0551272 0.00986472 95830
0.302 0.0551272 0.0146 95830
0.300184 0.0526456 0.00134768 95819.4
0.3005 0.0533165 0 95823.7
0.300184 0.0526456 0.0132523 95819.4
0.3005 0.0533165 0.0146 95823.7
0.302246 0.0559837 0.0128041 95831.3
0.302731 0.0565069 0.0146 95832.1
0.302246 0.0559837 0.00179586 95831.3
0.302731 0.0565069 0.00533997 95832.1
0.302731 0.0565069 0 95832.1
0.304 0.0587836 0 95839.2
0.303559 0.0574434 0.00321404 95836.2
0.304 0.0587836 0.00781394 95839.2
0.303559 0.0574434 0.011386 95836.2
0.304 0.0587836 0.0146 95839.2
0.304359 0.0599971 0.0119787 95839.2
0.305161 0.0607609 0.0146 95838
0.304359 0.0599971 0.00262133 95839.2
0.305161 0.0607609 0.00848003 95838
0.305161 0.0607609 0 95838
0.306 0.0622122 0 95834.9
0.305741 0.0613105 0.00188629 95837.2
0.306 0.0622122 0.00498104 95834.9
0.305741 0.0613105 0.0127137 95837.2
0.306 0.0622122 0.0146 95834.9
0.308 0.0644717 0 95824.5
0.307766 0.0645189 0.0017021 95823.8
0.307766 0.0645189 0.0128979 95823.8
0.308 0.0644717 0.0127357 95824.5
0.308 0.0644717 0.0146 95824.5
0.306601 0.0637356 0.0073 95829.5
0.307439 0.0638233 0 95826.5
0.307439 0.0638233 0.0146 95826.5
0.308111 0.0647788 0.01379 95824.6
0.308684 0.0650149 0.0146 95822.6
0.308111 0.0647788 0.000810034 95824.6
0.308684 0.0650149 0.0049938 95822.6
0.308684 0.0650149 0 95822.6
0.31 0.0660446 0 95821.4
0.309795 0.0654491 0.00149029 95817.3
0.31 0.0660446 0.00353404 95821.4
0.309795 0.0654491 0.0131097 95817.3
0.31 0.0660446 0.0146 95821.4
0.312 0.0678586 0 95826.5
0.311138 0.0668482 0.00629229 95813.6
0.312 0.0678586 0.0097599 95826.5
0.311138 0.0668482 0.00830771 95813.6
0.312 0.0678586 0.0146 95826.5
0.310698 0.0665005 0.00509877 95814.3
0.310855 0.0668353 0 95823.2
0.310698 0.0665005 0.00950123 95814.3
0.310855 0.0668353 0.0146 95823.2
0.314 0.0685901 0 95828.2
0.313819 0.0688845 0.00131908 95827.7
0.313819 0.0688845 0.0132809 95827.7
0.314 0.0685901 0.0122704 95828.2
0.314 0.0685901 0.0146 95828.2
0.312316 0.0685952 0.0122882 95826.5
0.312316 0.0685952 0.00231184 95826.5
0.313618 0.0684566 0 95827.7
0.313618 0.0684566 0.0146 95827.7
0.314225 0.0687899 0.0129561 95826.8
0.315528 0.0682652 0.0111556 95825.3
0.314225 0.0687899 0.00164388 95826.8
0.315528 0.0682652 0.00344441 95825.3
0.315999 0.0672177 0 95827
0.315999 0.0672177 0.00756047 95827
0.315999 0.0672177 0.0146 95827
0.315262 0.0677012 0 95828.1
0.315262 0.0677012 0.0146 95828.1
0.294 0.123911 0 95497.6
0.293678 0.123886 0.0122505 95497.2
0.293678 0.123886 0.00234954 95497.2
0.294 0.123911 0.0123368 95497.6
0.294 0.123911 0.0146 95497.6
0.292611 0.123271 0.0073 95497.7
0.293545 0.123604 0 95497.5
0.293545 0.123604 0.0146 95497.5
0.294143 0.124267 0.0135583 95496.8
0.294143 0.124267 0.00104169 95496.8
0.295245 0.124571 0.0146 95496.6
0.295245 0.124571 0.00909058 95496.6
0.295245 0.124571 0 95496.6
0.296 0.124959 0 95496.5
0.296 0.124959 0.0013335 95496.5
0.295904 0.124774 0.000699866 95496.4
0.295904 0.124774 0.0139001 95496.4
0.296 0.124959 0.0146 95496.5
0.298 0.125411 0 95496.4
0.298 0.125411 0.00288546 95496.4
0.297777 0.125045 0.00162805 95496.4
0.297777 0.125045 0.0129719 95496.4
0.298 0.125411 0.0146 95496.4
0.296199 0.124993 0 95496.5
0.296114 0.124813 0.000831792 95496.5
0.296114 0.124813 0.0137682 95496.5
0.296199 0.124993 0.0146 95496.5
0.3 0.125884 0 95496.8
0.3 0.125884 0.00450692 95496.8
0.299628 0.125362 0.00271498 95496.8
0.299628 0.125362 0.011885 95496.8
0.3 0.125884 0.0146 95496.8
0.298445 0.125517 0 95496.4
0.298275 0.125156 0.00200781 95496.4
0.298275 0.125156 0.0125922 95496.4
0.298445 0.125517 0.0146 95496.4
0.302 0.126807 0 95497.5
0.302 0.126807 0.00767648 95497.5
0.300938 0.125886 0.0071507 95497.1
0.302 0.126807 0.0146 95497.5
0.300793 0.126257 0 95496.7
0.300793 0.126257 0.0146 95496.7
0.304 0.128213 0 95496.6
0.303704 0.128196 0.0124416 95496.1
0.303704 0.128196 0.00215841 95496.1
0.304 0.128213 0.012502 95496.6
0.304 0.128213 0.0146 95496.6
0.302589 0.127572 0.0073 95496.5
0.303582 0.127935 0 95496.5
0.303582 0.127935 0.0146 95496.5
0.304126 0.128556 0.0136789 95495.8
0.304126 0.128556 0.000921123 95495.8
0.305176 0.128825 0.0146 95495.6
0.305176 0.128825 0.00859 95495.6
0.305176 0.128825 0 95495.6
0.306 0.129239 0 95495.5
0.306 0.129239 0.00142277 95495.5
0.3059 0.129037 0.000729293 95495.4
0.3059 0.129037 0.0138707 95495.4
0.306 0.129239 0.0146 95495.5
0.308 0.129745 0 95495.7
0.308 0.129745 0.00316046 95495.7
0.307764 0.129327 0.00172369 95495.7
0.307764 0.129327 0.0128763 95495.7
0.308 0.129745 0.0146 95495.7
0.306219 0.12929 0 95495.5
0.306121 0.129082 0.000882584 95495.5
0.306121 0.129082 0.0137174 95495.5
0.306219 0.12929 0.0146 95495.5
0.31 0.130384 0 95496.7
0.31 0.130384 0.00535224 95496.7
0.309542 0.129798 0.00334009 95496.8
0.309542 0.129798 0.0112599 95496.8
0.31 0.130384 0.0146 95496.7
0.30851 0.12991 0 95495.8
0.308333 0.129533 0.00243003 95496
0.308333 0.129533 0.01217 95496
0.30851 0.12991 0.0146 95495.8
0.312 0.131181 0 95497.2
0.312 0.131181 0.00808838 95497.2
0.310969 0.130551 0.00722539 95497.4
0.312 0.131181 0.0146 95497.2
0.310906 0.130753 0 95496.5
0.310906 0.130753 0.0146 95496.5
0.314 0.132212 0 95496.1
0.313599 0.132226 0.0116744 95495.7
0.313599 0.132226 0.00292564 95495.7
0.314 0.132212 0.0116258 95496.1
0.314 0.132212 0.0146 95496.1
0.312598 0.131805 0.0073 95496.4
0.313469 0.131951 0 95496
0.313469 0.131951 0.0146 95496
0.314199 0.132655 0.0131472 95494.8
0.314199 0.132655 0.00145284 95494.8
0.315473 0.133078 0.0146 95494.2
0.315473 0.133078 0.010757 95494.2
0.315473 0.133078 0 95494.2
0.315999 0.133395 0 95494
0.315999 0.133395 0.00108783 95494
0.315928 0.133231 0.000522547 95493.9
0.315928 0.133231 0.0140775 95493.9
0.315999 0.133395 0.0146 95494
0.320701 0.0664285 0 95826
0.319781 0.0658477 0.00285837 95821.8
0.320701 0.0664285 0.0048517 95826
0.319781 0.0658477 0.0117416 95821.8
0.320701 0.0664285 0.0146 95826
0.31718 0.0660827 0.0073 95821.1
0.318059 0.0668787 0 95826.5
0.318059 0.0668787 0.0146 95826.5
0.324781 0.0687062 0.00193102 95826.2
0.323529 0.0667105 0.0058196 95822.4
0.324781 0.0687062 0.012669 95826.2
0.323529 0.0667105 0.0087804 95822.4
0.324997 0.0692688 0.0146 95828.1
0.324997 0.0692688 0.0133383 95828.1
0.324997 0.0692688 0 95828.1
0.322239 0.0664065 0.00477611 95822.4
0.322239 0.0664065 0.00982389 95822.4
0.325403 0.0703566 0 95828.6
0.325256 0.0694019 0.000456777 95828.4
0.325403 0.0703566 0.00373336 95828.6
0.325256 0.0694019 0.0141432 95828.4
0.325403 0.0703566 0.0146 95828.6
0.326049 0.0729386 0.0125949 95829.6
0.326291 0.0735228 0.0146 95829.9
0.326049 0.0729386 0.00200509 95829.6
0.326291 0.0735228 0.00275791 95829.9
0.326291 0.0735228 0 95829.9
0.325403 0.077771 0 95828.4
0.325402 0.0777762 0.0145979 95828.4
0.325402 0.0777762 2.08125e-06 95828.4
0.325403 0.077771 0.0145801 95828.4
0.325403 0.077771 0.0146 95828.4
0.325402 0.0777768 0.0146 95828.4
0.325402 0.0777768 0.0145959 95828.4
0.326211 0.0742536 0 95829.9
0.32595 0.0740174 0.00169729 95829.6
0.326211 0.0742536 0.0146 95829.9
0.32595 0.0740174 0.0129027 95829.6
0.580129 0.0770254 0.0120213 95826.2
0.580129 0.0770254 0.00257873 95826.2
0.580859 0.0777768 0.0146 95826.2
0.580859 0.0777768 0.00484651 95826.2
0.580859 0.0777768 0 95826.2
0.584 0.0744561 0 95826.7
0.583445 0.0740248 0.00172288 95826.7
0.584 0.0744561 0.00320301 95826.7
0.583445 0.0740248 0.0128771 95826.7
0.584 0.0744561 0.0146 95826.7
0.580604 0.0747045 0.0073 95826.4
0.5818 0.0757863 0 95826.4
0.5818 0.0757863 0.0146 95826.4
0.325021 0.0816855 0.00118503 95826.5
0.325402 0.0777777 3.06916e-06 95828.4
0.325021 0.0816855 0.013415 95826.5
0.325402 0.0777777 0.0145969 95828.4
0.324826 0.0820308 0.0146 95826
0.324826 0.0820308 0.0128092 95826
0.324826 0.0820308 0 95826
0.324859 0.081539 0 95826.8
0.325402 0.0777768 0 95828.4
0.324859 0.081539 0.0146 95826.8
0.579987 0.0814075 0.0124608 95825.8
0.579987 0.0814075 0.00213919 95825.8
0.580676 0.0820308 0.0146 95825.4
0.580676 0.0820308 0.00427918 95825.4
0.580676 0.0820308 0 95825.4
0.580034 0.0784427 0.00228546 95826.2
0.580771 0.0791089 0 95825.8
0.580034 0.0784427 0.0123145 95826.2
0.580771 0.0791089 0.0146 95825.8
0.325403 0.0847455 0 95824.5
0.325048 0.0823521 0.00110286 95826.2
0.325403 0.0847455 0.00931707 95824.5
0.325048 0.0823521 0.0134971 95826.2
0.325403 0.0847455 0.0146 95824.5
0.325574 0.0861303 0.0140698 95823.6
0.325743 0.0862847 0.0146 95823.6
0.325574 0.0861303 0.000530222 95823.6
0.325743 0.0862847 0.00105613 95823.6
0.325743 0.0862847 0 95823.6
0.579988 0.0856611 0.0124594 95825.2
0.579988 0.0856611 0.00214057 95825.2
0.580677 0.0862847 0.0146 95825.6
0.580677 0.0862847 0.00428131 95825.6
0.580677 0.0862847 0 95825.6
0.579987 0.0826543 0.00213998 95825.1
0.580677 0.0832779 0 95825.5
0.579987 0.0826543 0.01246 95825.1
0.580677 0.0832779 0.0146 95825.5
0.326666 0.0893956 0.0073 95819.7
0.328171 0.0905387 0.0146 95818.8
0.328171 0.0905387 0.00859523 95818.8
0.328171 0.0905387 0 95818.8
0.325694 0.086548 0.000903417 95823.6
0.3261 0.0869152 0 95823.2
0.3261 0.0869152 0.0146 95823.2
0.325694 0.086548 0.0136966 95823.6
0.580054 0.0898551 0.0122536 95826.7
0.580054 0.0898551 0.00234642 95826.7
0.58094 0.0905387 0.0146 95826.8
0.58094 0.0905387 0.00509923 95826.8
0.58094 0.0905387 0 95826.8
0.579988 0.0869085 0.00214074 95826
0.580802 0.0876452 0 95826.2
0.579988 0.0869085 0.0124593 95826
0.580802 0.0876452 0.0146 95826.2
0.330105 0.0924542 0 95817.2
0.329264 0.0912993 0.00261048 95819.4
0.330105 0.0924542 0.0065739 95817.2
0.329264 0.0912993 0.0119895 95819.4
0.330105 0.0924542 0.0146 95817.2
0.331046 0.0939411 0.0116773 95815.7
0.333329 0.0947927 0.0146 95816.3
0.331046 0.0939411 0.00292273 95815.7
0.333329 0.0947927 0.0100128 95816.3
0.333329 0.0947927 0 95816.3
0.583337 0.0941932 0.0125424 95826.5
0.580666 0.0935549 0.0073 95827
0.583337 0.0941932 0.00205764 95826.5
0.584 0.0937127 0 95826.3
0.584 0.0937127 0.0108933 95826.3
0.584 0.0937127 0.0146 95826.3
0.580197 0.091352 0.00279133 95827.1
0.580197 0.091352 0.0118087 95827.1
0.334807 0.0957483 0 95815.3
0.334326 0.095227 0.00149068 95817.4
0.334807 0.0957483 0.00327982 95815.3
0.334326 0.095227 0.0131093 95817.4
0.334807 0.0957483 0.0146 95815.3
0.339508 0.0977726 0 95814.4
0.337335 0.0967592 0.00674915 95813.7
0.339508 0.0977726 0.0102274 95814.4
0.337335 0.0967592 0.00785085 95813.7
0.339508 0.0977726 0.0146 95814.4
0.336667 0.0964762 0.00577775 95814.2
0.336782 0.09658 0 95815.5
0.336667 0.0964762 0.00882225 95814.2
0.336782 0.09658 0.0146 95815.5
0.340188 0.0984317 0.0124892 95814.4
0.343054 0.0990467 0.0146 95814.3
0.340188 0.0984317 0.0021108 95814.4
0.343054 0.0990467 0.0110087 95814.3
0.343054 0.0990467 0 95814.3
0.34421 0.0994722 0 95813.6
0.343967 0.099267 0.000756191 95814.5
0.34421 0.0994722 0.00146027 95813.6
0.343967 0.099267 0.0138438 95814.5
0.34421 0.0994722 0.0146 95813.6
0.348912 0.100456 0 95813.2
0.347995 0.0998761 0.00284659 95813.3
0.348912 0.100456 0.00483521 95813.2
0.347995 0.0998761 0.0117534 95813.3
0.348912 0.100456 0.0146 95813.2
0.344566 0.0993685 0.00110439 95814.1
0.344781 0.0995628 0 95814.1
0.344566 0.0993685 0.0134956 95814.1
0.344781 0.0995628 0.0146 95814.1
0.353614 0.101259 0 95815.1
0.351795 0.100692 0.00564762 95813.2
0.353614 0.101259 0.00759243 95815.1
0.351795 0.100692 0.00895238 95813.2
0.353614 0.101259 0.0146 95815.1
0.350525 0.100507 0.00501034 95813.2
0.350838 0.100789 0 95814.7
0.350525 0.100507 0.00958966 95813.2
0.350838 0.100789 0.0146 95814.7
0.358315 0.102043 0 95816.3
0.356969 0.102083 0.00417951 95815.1
0.356969 0.102083 0.0104205 95815.1
0.358315 0.102043 0.0102824 95816.3
0.358315 0.102043 0.0146 95816.3
0.355238 0.101831 0.00955666 95814.4
0.355238 0.101831 0.00504334 95814.4
0.356641 0.101786 0 95816.1
0.356641 0.101786 0.0146 95816.1
0.363017 0.10274 0 95816.1
0.362561 0.102888 0.00141556 95815.9
0.362561 0.102888 0.0131844 95815.9
0.363017 0.10274 0.0126775 95816.1
0.363017 0.10274 0.0146 95816.1
0.359165 0.102532 0.0119604 95816