# U  POINT_DATA 2780
# x y z  U_x U_y U_z
0.00423188 0.0852413 0 0.028497 -0.284399 0
0.00352797 0.0855772 0.0121715 0.0256061 -0.285715 0
0.00352797 0.0855772 0.00242852 0.0256061 -0.285715 0
0.00423188 0.0852413 0.0110188 0.028497 -0.284399 0
0.00423188 0.0852413 0.0146 0.028497 -0.284399 0
0.00067865 0.0856026 0.0122587 0.00594579 -0.0893228 0
0.00067865 0.0856026 0.00234134 0.00594579 -0.0893228 0
0 0.0852932 0.0146 0 0 0
0 0.0852932 0.011197 0 0 0
0 0.0852932 0 0 0 0
0.00320385 0.0852513 0 0.0220532 -0.219032 0
0.00320385 0.0852513 0.0146 0.0220532 -0.219032 0
0.00846377 0.0851367 0 0.0460563 -0.28566 0
0.00767052 0.0854874 0.0118633 0.0428808 -0.287381 0
0.00767052 0.0854874 0.00273671 0.0428808 -0.287381 0
0.00846377 0.0851367 0.0106598 0.0460563 -0.28566 0
0.00846377 0.0851367 0.0146 0.0460563 -0.28566 0
0.00497497 0.0855378 0.0120363 0.0317231 -0.287277 0
0.00497497 0.0855378 0.00256366 0.0317231 -0.287277 0
0.00734333 0.0851585 0 0.0413644 -0.284293 0
0.00734333 0.0851585 0.0146 0.0413644 -0.284293 0
0.0126957 0.0850439 0 0.0614622 -0.285485 0
0.0118144 0.0853989 0.0115596 0.0586182 -0.287262 0
0.0118144 0.0853989 0.00304043 0.0586182 -0.287262 0
0.0126957 0.0850439 0.0103414 0.0614622 -0.285485 0
0.0126957 0.0850439 0.0146 0.0614622 -0.285485 0
0.00930204 0.0854421 0.011708 0.0495389 -0.287645 0
0.00930204 0.0854421 0.00289203 0.0495389 -0.287645 0
0.011482 0.0850647 0 0.0569352 -0.285067 0
0.011482 0.0850647 0.0146 0.0569352 -0.285067 0
0.0169275 0.0849694 0 0.0750066 -0.285139 0
0.0159741 0.0853263 0.0113105 0.0719776 -0.286977 0
0.0159741 0.0853263 0.0032895 0.0719776 -0.286977 0
0.0169275 0.0849694 0.0100857 0.0750066 -0.285139 0
0.0169275 0.0849694 0.0146 0.0750066 -0.285139 0
0.013616 0.0853596 0.0114248 0.0644971 -0.287266 0
0.013616 0.0853596 0.00317518 0.0644971 -0.287266 0
0.0156369 0.0849874 0 0.0707876 -0.285039 0
0.0156369 0.0849874 0.0146 0.0707876 -0.285039 0
0.0211594 0.0849043 0 0.0883725 -0.284616 0
0.0201407 0.0852608 0.0110856 0.0851363 -0.286563 0
0.0201407 0.0852608 0.00351442 0.0851363 -0.286563 0
0.0211594 0.0849043 0.00986216 0.0883725 -0.284616 0
0.0211594 0.0849043 0.0146 0.0883725 -0.284616 0
0.0179184 0.0852887 0.0111816 0.0781503 -0.286849 0
0.0179184 0.0852887 0.00341842 0.0781503 -0.286849 0
0.0198028 0.084921 0 0.0840439 -0.284701 0
0.0198028 0.084921 0.0146 0.0840439 -0.284701 0
0.0253913 0.0848454 0 0.101723 -0.283853 0
0.0253913 0.0848454 0.00966001 0.101723 -0.283853 0
0.0243119 0.0851998 0.0073 0.0982603 -0.28591 0
0.0253913 0.0848454 0.0146 0.101723 -0.283853 0
0.0222146 0.085224 0.0109595 0.0916575 -0.286271 0
0.0222146 0.085224 0.00364052 0.0916575 -0.286271 0
0.0239754 0.0848614 0 0.0972389 -0.284075 0
0.0239754 0.0848614 0.0146 0.0972389 -0.284075 0
0.0296232 0.0847903 0 0.115166 -0.282889 0
0.0296232 0.0847903 0.00947085 0.115166 -0.282889 0
0.0274964 0.0851521 0.00728757 0.108318 -0.285266 0
0.0296232 0.0847903 0.0146 0.115166 -0.282889 0
0.0281522 0.084806 0 0.110491 -0.283211 0
0.0281522 0.084806 0.0146 0.110491 -0.283211 0
0.0338551 0.084737 0 0.128701 -0.281729 0
0.0338551 0.084737 0.00928803 0.128701 -0.281729 0
0.0317292 0.0850933 0.00728853 0.121786 -0.284254 0
0.0338551 0.084737 0.0146 0.128701 -0.281729 0
0.0323313 0.084753 0 0.123816 -0.282132 0
0.0323313 0.084753 0.0146 0.123816 -0.282132 0
0.038087 0.0846826 0 0.142267 -0.280351 0
0.038087 0.0846826 0.00910145 0.142267 -0.280351 0
0.0359617 0.0850338 0.00728923 0.135344 -0.283053 0
0.038087 0.0846826 0.0146 0.142267 -0.280351 0
0.0365113 0.0847009 0 0.137169 -0.280833 0
0.0365113 0.0847009 0.0146 0.137169 -0.280833 0
0.0423188 0.0846257 0 0.155882 -0.278636 0
0.0423188 0.0846257 0.00890615 0.155882 -0.278636 0
0.0401941 0.0849634 0.00728988 0.148979 -0.281599 0
0.0423188 0.0846257 0.0146 0.155882 -0.278636 0
0.0406898 0.0846472 0 0.150565 -0.279196 0
0.0406898 0.0846472 0.0146 0.150565 -0.279196 0
0.0465507 0.0845676 0 0.170246 -0.276498 0
0.0465507 0.0845676 0.00870676 0.170246 -0.276498 0
0.0444266 0.0848857 0.00729057 0.162906 -0.279869 0
0.0465507 0.0845676 0.0146 0.170246 -0.276498 0
0.0448656 0.0845908 0 0.164708 -0.277129 0
0.0448656 0.0845908 0.0146 0.164708 -0.277129 0
0.0507826 0.0845091 0 0.185533 -0.274507 0
0.0507826 0.0845091 0.00850571 0.185533 -0.274507 0
0.0486592 0.0848036 0.00729138 0.177301 -0.278035 0
0.0507826 0.0845091 0.0146 0.185533 -0.274507 0
0.0490402 0.0845332 0 0.179783 -0.275214 0
0.0490402 0.0845332 0.0146 0.179783 -0.275214 0
0.0550145 0.0844503 0 0.20066 -0.272733 0
0.0550145 0.0844503 0.00830394 0.20066 -0.272733 0
0.0528919 0.0847173 0.00729235 0.191818 -0.276242 0
0.0550145 0.0844503 0.0146 0.20066 -0.272733 0
0.0532146 0.0844754 0 0.194702 -0.273526 0
0.0532146 0.0844754 0.0146 0.194702 -0.273526 0
0.0592464 0.0843916 0 0.215163 -0.27081 0
0.0592464 0.0843916 0.00810242 0.215163 -0.27081 0
0.0571247 0.0846269 0.00729346 0.206061 -0.274375 0
0.0592464 0.0843916 0.0146 0.215163 -0.27081 0
0.0573889 0.0844176 0 0.208997 -0.271696 0
0.0573889 0.0844176 0.0146 0.208997 -0.271696 0
0.0634783 0.0843332 0 0.229618 -0.26864 0
0.0634783 0.0843332 0.00790208 0.229618 -0.26864 0
0.0613577 0.0845326 0.0072947 0.220112 -0.272315 0
0.0634783 0.0843332 0.0146 0.229618 -0.26864 0
0.0615635 0.08436 0 0.223247 -0.269627 0
0.0615635 0.08436 0.0146 0.223247 -0.269627 0
0.0677101 0.0842755 0 0.244218 -0.266273 0
0.0677101 0.0842755 0.00770424 0.244218 -0.266273 0
0.0655908 0.0844349 0.00729605 0.234136 -0.270055 0
0.0677101 0.0842755 0.0146 0.244218 -0.266273 0
0.0657386 0.0843029 0 0.237651 -0.267371 0
0.0657386 0.0843029 0.0146 0.237651 -0.267371 0
0.071942 0.0842191 0 0.258843 -0.263774 0
0.071942 0.0842191 0.00751041 0.258843 -0.263774 0
0.0698239 0.0843344 0.00729748 0.248117 -0.267601 0
0.071942 0.0842191 0.0146 0.258843 -0.263774 0
0.0699146 0.0842467 0 0.25209 -0.264995 0
0.0699146 0.0842467 0.0146 0.25209 -0.264995 0
0.0761739 0.0841642 0 0.27336 -0.261039 0
0.0761739 0.0841642 0.0073221 0.27336 -0.261039 0
0.0740571 0.0842318 0.00729895 0.262007 -0.264935 0
0.0761739 0.0841642 0.0146 0.27336 -0.261039 0
0.0740919 0.0841919 0 0.26643 -0.262394 0
0.0740919 0.0841919 0.0146 0.26643 -0.262394 0
0.0804058 0.0841114 0 0.287871 -0.258093 0
0.0804058 0.0841114 0.00714093 0.287871 -0.258093 0
0.0782902 0.0841285 0.00730043 0.275934 -0.261974 0
0.0804058 0.0841114 0.0146 0.287871 -0.258093 0
0.078271 0.0841388 0 0.280777 -0.259591 0
0.078271 0.0841388 0.0146 0.280777 -0.259591 0
0.0846377 0.0840613 0 0.302361 -0.254894 0
0.0846377 0.0840613 0.00696895 0.302361 -0.254894 0
0.0825232 0.0840319 0.00730171 0.29014 -0.258636 0
0.0846377 0.0840613 0.0146 0.302361 -0.254894 0
0.0824524 0.0840881 0 0.295117 -0.256544 0
0.0824524 0.0840881 0.0146 0.295117 -0.256544 0
0.0888696 0.0840146 0 0.31679 -0.251457 0
0.0888696 0.0840146 0.00680864 0.31679 -0.251457 0
0.0867559 0.0839452 0.00730264 0.304314 -0.255096 0
0.0888696 0.0840146 0.0146 0.31679 -0.251457 0
0.0866366 0.0840402 0 0.30941 -0.253271 0
0.0866366 0.0840402 0.0146 0.30941 -0.253271 0
0.0931014 0.0839721 0 0.331185 -0.247763 0
0.0931014 0.0839721 0.0066627 0.331185 -0.247763 0
0.0909883 0.0838686 0.00730322 0.318442 -0.251335 0
0.0931014 0.0839721 0.0146 0.331185 -0.247763 0
0.0908245 0.0839959 0 0.323687 -0.249752 0
0.0908245 0.0839959 0.0146 0.323687 -0.249752 0
0.0973333 0.0839345 0 0.345486 -0.243757 0
0.0973333 0.0839345 0.00653389 0.345486 -0.243757 0
0.0952204 0.0838025 0.00730345 0.332515 -0.247334 0
0.0973333 0.0839345 0.0146 0.345486 -0.243757 0
0.0950167 0.083956 0 0.33789 -0.245932 0
0.0950167 0.083956 0.0146 0.33789 -0.245932 0
0.101565 0.0839029 0 0.359717 -0.239453 0
0.101565 0.0839029 0.00642519 0.359717 -0.239453 0
0.0994522 0.0837471 0.00730332 0.346515 -0.243074 0
0.101565 0.0839029 0.0146 0.359717 -0.239453 0
0.099214 0.0839213 0 0.352046 -0.241823 0
0.099214 0.0839213 0.0146 0.352046 -0.241823 0
0.105797 0.0838781 0 0.373677 -0.234769 0
0.105797 0.0838781 0.0063402 0.373677 -0.234769 0
0.103684 0.0837031 0.00730285 0.360432 -0.23854 0
0.105797 0.0838781 0.0146 0.373677 -0.234769 0
0.103417 0.0838927 0 0.365955 -0.23734 0
0.103417 0.0838927 0.0146 0.365955 -0.23734 0
0.110029 0.0838614 0 0.387487 -0.229756 0
0.110029 0.0838614 0.00628299 0.387487 -0.229756 0
0.107915 0.0836713 0.00730204 0.374249 -0.233719 0
0.110029 0.0838614 0.0146 0.387487 -0.229756 0
0.107628 0.0838714 0 0.379744 -0.232534 0
0.107628 0.0838714 0.0146 0.379744 -0.232534 0
0.114261 0.0838543 0 0.401219 -0.224468 0
0.114261 0.0838543 0.00625835 0.401219 -0.224468 0
0.112146 0.083653 0.00730091 0.387948 -0.228596 0
0.114261 0.0838543 0.0146 0.401219 -0.224468 0
0.111847 0.0838586 0 0.393489 -0.227456 0
0.111847 0.0838586 0.0146 0.393489 -0.227456 0
0.118493 0.0838583 0 0.414778 -0.218782 0
0.118493 0.0838583 0.00627235 0.414778 -0.218782 0
0.116376 0.0836501 0.00729948 0.401518 -0.223153 0
0.118493 0.0838583 0.0146 0.414778 -0.218782 0
0.116077 0.0838559 0 0.407097 -0.22198 0
0.116077 0.0838559 0.0146 0.407097 -0.22198 0
0.122725 0.0838748 0 0.42811 -0.212673 0
0.122725 0.0838748 0.00632886 0.42811 -0.212673 0
0.120607 0.0836653 0.00729796 0.414949 -0.217381 0
0.122725 0.0838748 0.0146 0.42811 -0.212673 0
0.120317 0.083865 0 0.420522 -0.216076 0
0.120317 0.083865 0.0146 0.420522 -0.216076 0
0.126957 0.0839052 0 0.441157 -0.206102 0
0.126957 0.0839052 0.00643313 0.441157 -0.206102 0
0.124838 0.0836997 0.00729648 0.428229 -0.211258 0
0.126957 0.0839052 0.0146 0.441157 -0.206102 0
0.124571 0.0838873 0 0.433712 -0.209702 0
0.124571 0.0838873 0.0146 0.433712 -0.209702 0
0.131188 0.0839518 0 0.453796 -0.199079 0
0.131188 0.0839518 0.00659319 0.453796 -0.199079 0
0.129068 0.0837587 0.00729524 0.44134 -0.204783 0
0.131188 0.0839518 0.0146 0.453796 -0.199079 0
0.128841 0.0839248 0 0.446552 -0.20286 0
0.128841 0.0839248 0.0146 0.446552 -0.20286 0
0.13542 0.0840168 0 0.465829 -0.191625 0
0.13542 0.0840168 0.00681618 0.465829 -0.191625 0
0.1333 0.0838479 0.00729476 0.454275 -0.197949 0
0.13542 0.0840168 0.0146 0.465829 -0.191625 0
0.133128 0.0839802 0 0.458857 -0.195563 0
0.133128 0.0839802 0.0146 0.458857 -0.195563 0
0.139652 0.0841025 0 0.477286 -0.183699 0
0.139652 0.0841025 0.00711031 0.477286 -0.183699 0
0.137533 0.0839757 0.00729584 0.467029 -0.190756 0
0.139652 0.0841025 0.0146 0.477286 -0.183699 0
0.137435 0.0840561 0 0.47067 -0.187759 0
0.137435 0.0840561 0.0146 0.47067 -0.187759 0
0.143884 0.0842117 0 0.488188 -0.175231 0
0.143884 0.0842117 0.00748509 0.488188 -0.175231 0
0.141768 0.0841549 0.00729991 0.479592 -0.183222 0
0.143884 0.0842117 0.0146 0.488188 -0.175231 0
0.141766 0.0841555 0 0.48202 -0.179362 0
0.141766 0.0841555 0.0146 0.48202 -0.179362 0
0.148116 0.0843475 0 0.498505 -0.166277 0
0.148116 0.0843475 0.00795127 0.498505 -0.166277 0
0.146007 0.0843809 0.00730761 0.492239 -0.174467 0
0.148116 0.0843475 0.0146 0.498505 -0.166277 0
0.146124 0.0842824 0 0.492883 -0.170411 0
0.146124 0.0842824 0.0146 0.492883 -0.170411 0
0.152348 0.0845127 0 0.508594 -0.157019 0
0.152348 0.0845127 0.00851832 0.508594 -0.157019 0
0.150248 0.0846315 0.00731864 0.503922 -0.165078 0
0.152348 0.0845127 0.0146 0.508594 -0.157019 0
0.150513 0.0844405 0 0.503605 -0.161062 0
0.150513 0.0844405 0.0146 0.503605 -0.161062 0
0.15658 0.0847046 0 0.519067 -0.147921 0
0.15658 0.0847046 0.00917691 0.519067 -0.147921 0
0.154492 0.0848974 0.00733229 0.514857 -0.155305 0
0.15658 0.0847046 0.0146 0.519067 -0.147921 0
0.154936 0.0846325 0 0.514766 -0.151751 0
0.154936 0.0846325 0.0146 0.514766 -0.151751 0
0.160812 0.0849217 0 0.529846 -0.138325 0
0.160812 0.0849217 0.009922 0.529846 -0.138325 0
0.158737 0.0851484 0.00734775 0.52556 -0.145279 0
0.160812 0.0849217 0.0146 0.529846 -0.138325 0
0.159392 0.084858 0 0.526263 -0.141826 0
0.159392 0.084858 0.0146 0.526263 -0.141826 0
0.165043 0.0851731 0 0.54055 -0.127518 0
0.164204 0.0854413 0.0117051 0.539295 -0.131332 0
0.164204 0.0854413 0.00289486 0.539295 -0.131332 0
0.165043 0.0851731 0.0107846 0.54055 -0.127518 0
0.165043 0.0851731 0.0146 0.54055 -0.127518 0
0.161765 0.0853265 0.0113111 0.533136 -0.137726 0
0.161765 0.0853265 0.0032889 0.533136 -0.137726 0
0.163883 0.0851181 0 0.537728 -0.130548 0
0.163883 0.0851181 0.0146 0.537728 -0.130548 0
0.169275 0.0854683 0 0.55112 -0.116049 0
0.168695 0.0857013 0.0125977 0.550354 -0.118795 0
0.168695 0.0857013 0.00200235 0.550354 -0.118795 0
0.169275 0.0854683 0.0117978 0.55112 -0.116049 0
0.169275 0.0854683 0.0146 0.55112 -0.116049 0
0.165774 0.0855507 0.0120808 0.543067 -0.126973 0
0.165774 0.0855507 0.00251921 0.543067 -0.126973 0
0.168419 0.0854238 0 0.549126 -0.118407 0
0.168419 0.0854238 0.0146 0.549126 -0.118407 0
0.173507 0.0858158 0 0.56134 -0.103978 0
0.173194 0.0859698 0.0135191 0.560997 -0.105503 0
0.173194 0.0859698 0.00108094 0.560997 -0.105503 0
0.173507 0.0858158 0.0129907 0.56134 -0.103978 0
0.173507 0.0858158 0.0146 0.56134 -0.103978 0
0.169779 0.0857782 0.0128616 0.552843 -0.115593 0
0.169779 0.0857782 0.00173841 0.552843 -0.115593 0
0.173014 0.0857885 0 0.560251 -0.105409 0
0.173014 0.0857885 0.0146 0.560251 -0.105409 0
0.177739 0.086229 0 0.57105 -0.091289 0
0.177704 0.0862496 0.0144793 0.571022 -0.0914607 0
0.177704 0.0862496 0.000120702 0.571022 -0.0914607 0
0.177739 0.086229 0.0144088 0.57105 -0.091289 0
0.177739 0.086229 0.0146 0.57105 -0.091289 0
0.17378 0.0860107 0.0136594 0.562261 -0.103661 0
0.17378 0.0860107 0.000940575 0.562261 -0.103661 0
0.17768 0.0862257 0 0.570929 -0.0914677 0
0.17768 0.0862257 0.0146 0.570929 -0.0914677 0
0.17777 0.0862539 0.0144942 0.571151 -0.0912419 0
0.17777 0.0862539 0.000105776 0.571151 -0.0912419 0
0.178228 0.0862847 0.0146 0.572082 -0.0897638 0
0.178228 0.0862847 0.00168731 0.572082 -0.0897638 0
0.178228 0.0862847 0 0.572082 -0.0897638 0
0.181971 0.0866946 0 0.584432 -0.0773309 0
0.181971 0.0866946 0.00140676 0.584432 -0.0773309 0
0.181738 0.086519 0.00080395 0.579266 -0.0784719 0
0.181738 0.086519 0.0137961 0.579266 -0.0784719 0
0.181971 0.0866946 0.0146 0.584432 -0.0773309 0
0.186203 0.0871913 0 0.595759 -0.0623579 0
0.186203 0.0871913 0.00311139 0.595759 -0.0623579 0
0.185661 0.0868297 0.00187045 0.586809 -0.0659031 0
0.185661 0.0868297 0.0127296 0.586809 -0.0659031 0
0.186203 0.0871913 0.0146 0.595759 -0.0623579 0
0.182415 0.0867313 0 0.584564 -0.0754973 0
0.182246 0.0865609 0.000947788 0.58034 -0.0769289 0
0.182246 0.0865609 0.0136522 0.58034 -0.0769289 0
0.182415 0.0867313 0.0146 0.584564 -0.0754973 0
0.190435 0.0877813 0 0.60217 -0.0469585 0
0.190435 0.0877813 0.00513642 0.60217 -0.0469585 0
0.189468 0.0872567 0.00333596 0.594392 -0.0543896 0
0.189468 0.0872567 0.011264 0.594392 -0.0543896 0
0.190435 0.0877813 0.0146 0.60217 -0.0469585 0
0.187226 0.0873136 0 0.594117 -0.0583279 0
0.186903 0.0869887 0.00241595 0.58943 -0.0623736 0
0.186903 0.0869887 0.0121841 0.58943 -0.0623736 0
0.187226 0.0873136 0.0146 0.594117 -0.0583279 0
0.194667 0.0884951 0 0.598726 -0.0317886 0
0.194667 0.0884951 0.00758595 0.598726 -0.0317886 0
0.192472 0.0878893 0.00720936 0.601732 -0.0467287 0
0.194667 0.0884951 0.0146 0.598726 -0.0317886 0
0.192209 0.088068 0 0.594972 -0.0407075 0
0.192209 0.088068 0.0146 0.594972 -0.0407075 0
0.198899 0.0892497 0 0.595695 -0.0181527 0
0.198899 0.0892497 0.010176 0.595695 -0.0181527 0
0.196897 0.0891981 0.00743136 0.604357 -0.0299286 0
0.198899 0.0892497 0.0146 0.595695 -0.0181527 0
0.197345 0.0889766 0 0.594386 -0.0238705 0
0.197345 0.0889766 0.0146 0.594386 -0.0238705 0
0.20313 0.0900255 0 0.603994 -0.0043473 0
0.20276 0.0901663 0.0133219 0.605233 -0.00699362 0
0.20276 0.0901663 0.00127811 0.605233 -0.00699362 0
0.20313 0.0900255 0.0128386 0.603994 -0.0043473 0
0.20313 0.0900255 0.0146 0.603994 -0.0043473 0
0.199651 0.0897821 0.0120032 0.599851 -0.0180593 0
0.199651 0.0897821 0.00259685 0.599851 -0.0180593 0
0.202524 0.0899296 0 0.603477 -0.00660989 0
0.202524 0.0899296 0.0146 0.603477 -0.00660989 0
0.203391 0.0902771 0.0137022 0.605006 -0.00415051 0
0.203391 0.0902771 0.00089781 0.605006 -0.00415051 0
0.205812 0.0905387 0.0146 0.608745 0.0066993 0
0.205812 0.0905387 0.00925034 0.608745 0.0066993 0
0.205812 0.0905387 0 0.608745 0.0066993 0
0.207362 0.0908367 0 0.615683 0.0128688 0
0.207362 0.0908367 0.00102254 0.615683 0.0128688 0
0.20721 0.0906916 0.000524635 0.611056 0.0128413 0
0.20721 0.0906916 0.0140754 0.611056 0.0128413 0
0.207362 0.0908367 0.0146 0.615683 0.0128688 0
0.211594 0.091503 0 0.619766 0.0337273 0
0.211594 0.091503 0.0033095 0.619766 0.0337273 0
0.211069 0.0910664 0.00181096 0.614886 0.0316321 0
0.211069 0.0910664 0.012789 0.614886 0.0316321 0
0.211594 0.091503 0.0146 0.619766 0.0337273 0
0.2077 0.0908777 0 0.613567 0.0150946 0
0.20755 0.0907276 0.000648192 0.611881 0.0145292 0
0.20755 0.0907276 0.0139518 0.611881 0.0145292 0
0.2077 0.0908777 0.0146 0.613567 0.0150946 0
0.215826 0.0923738 0 0.612865 0.0496716 0
0.215826 0.0923738 0.00629824 0.612865 0.0496716 0
0.214734 0.0916365 0.0073 0.616624 0.0485641 0
0.215826 0.0923738 0.0146 0.612865 0.0496716 0
0.212805 0.0917557 0 0.613334 0.0377086 0
0.212357 0.0913052 0.00263067 0.61591 0.03818 0
0.212357 0.0913052 0.0119693 0.61591 0.03818 0
0.212805 0.0917557 0.0146 0.613334 0.0377086 0
0.220058 0.0938115 0 0.612841 0.0561054 0
0.220058 0.0938115 0.0112325 0.612841 0.0561054 0
0.218125 0.0932083 0.00751065 0.617552 0.0583976 0
0.220058 0.0938115 0.0146 0.612841 0.0561054 0
0.21862 0.093347 0 0.613012 0.0528987 0
0.21862 0.093347 0.0146 0.613012 0.0528987 0
0.220503 0.094345 0.0130636 0.614082 0.0574088 0
0.220503 0.094345 0.00153642 0.614082 0.0574088 0
0.223012 0.0947927 0.0146 0.617583 0.06315 0
0.223012 0.0947927 0.0101904 0.617583 0.06315 0
0.223012 0.0947927 0 0.617583 0.06315 0
0.22429 0.0952169 0 0.625851 0.0663426 0
0.22429 0.0952169 0.00145575 0.625851 0.0663426 0
0.224077 0.0950069 0.000735016 0.619077 0.0651088 0
0.224077 0.0950069 0.013865 0.619077 0.0651088 0
0.22429 0.0952169 0.0146 0.625851 0.0663426 0
0.228522 0.096219 0 0.629633 0.08076 0
0.228522 0.096219 0.00489508 0.629633 0.08076 0
0.22776 0.0955588 0.00262945 0.624214 0.0788247 0
0.22776 0.0955588 0.0119705 0.624214 0.0788247 0
0.228522 0.096219 0.0146 0.629633 0.08076 0
0.224823 0.0953283 0 0.621987 0.0682065 0
0.224583 0.0950873 0.00101111 0.620013 0.0676433 0
0.224583 0.0950873 0.0135889 0.620013 0.0676433 0
0.224823 0.0953283 0.0146 0.621987 0.0682065 0
0.232754 0.0976644 0 0.62396 0.0909593 0
0.232754 0.0976644 0.00985574 0.62396 0.0909593 0
0.230557 0.0966306 0.00720686 0.628082 0.0920034 0
0.232754 0.0976644 0.0146 0.62396 0.0909593 0
0.230705 0.0969873 0 0.623456 0.0854842 0
0.230705 0.0969873 0.0146 0.623456 0.0854842 0
0.233424 0.0983723 0.0122856 0.62423 0.095119 0
0.233424 0.0983723 0.0023144 0.62423 0.095119 0
0.236436 0.0990467 0.0146 0.626404 0.103293 0
0.236436 0.0990467 0.0127043 0.626404 0.103293 0
0.236436 0.0990467 0 0.626404 0.103293 0
0.236986 0.0992632 0 0.630878 0.105386 0
0.236986 0.0992632 0.000743269 0.630878 0.105386 0
0.236878 0.0991548 0.000371094 0.626816 0.10441 0
0.236878 0.0991548 0.0142289 0.626816 0.10441 0
0.236986 0.0992632 0.0146 0.630878 0.105386 0
0.241217 0.100501 0 0.635031 0.117918 0
0.241217 0.100501 0.00498987 0.635031 0.117918 0
0.240464 0.0998042 0.00259982 0.629077 0.115744 0
0.240464 0.0998042 0.0120002 0.629077 0.115744 0
0.241217 0.100501 0.0146 0.635031 0.117918 0
0.237268 0.0993303 0 0.628111 0.106006 0
0.237135 0.0991971 0.000516151 0.626959 0.105626 0
0.237135 0.0991971 0.0140838 0.626959 0.105626 0
0.237268 0.0993303 0.0146 0.628111 0.106006 0
0.245449 0.102207 0 0.627058 0.121412 0
0.245449 0.102207 0.0108477 0.627058 0.121412 0
0.243297 0.101064 0.00725835 0.631419 0.126587 0
0.245449 0.102207 0.0146 0.627058 0.121412 0
0.243682 0.101524 0 0.6271 0.119185 0
0.243682 0.101524 0.0146 0.6271 0.119185 0
0.245923 0.102824 0.0129651 0.626307 0.123154 0
0.245923 0.102824 0.00163488 0.626307 0.123154 0
0.248004 0.103301 0.0146 0.630077 0.126314 0
0.248004 0.103301 0.00881388 0.630077 0.126314 0
0.248004 0.103301 0 0.630077 0.126314 0
0.249681 0.104009 0 0.641558 0.12988 0
0.249681 0.104009 0.00243163 0.641558 0.12988 0
0.249334 0.10365 0.00119776 0.632373 0.128241 0
0.249334 0.10365 0.0134022 0.632373 0.128241 0
0.249681 0.104009 0.0146 0.641558 0.12988 0
0.253913 0.105637 0 0.635394 0.13267 0
0.253913 0.105637 0.00801847 0.635394 0.13267 0
0.252688 0.104532 0.0073 0.638224 0.135376 0
0.253913 0.105637 0.0146 0.635394 0.13267 0
0.250812 0.104437 0 0.632732 0.130018 0
0.250298 0.103921 0.00212836 0.634246 0.131469 0
0.250298 0.103921 0.0124716 0.634246 0.131469 0
0.250812 0.104437 0.0146 0.632732 0.130018 0
0.254873 0.10659 0.0112876 0.635028 0.135898 0
0.254873 0.10659 0.00331238 0.635028 0.135898 0
0.258032 0.107555 0.0146 0.639846 0.13446 0
0.258032 0.107555 0.0142091 0.639846 0.13446 0
0.258032 0.107555 0 0.639846 0.13446 0
0.258145 0.107613 0 0.641476 0.13455 0
0.258145 0.107613 0.000199878 0.641476 0.13455 0
0.258117 0.107583 9.71266e-05 0.63996 0.134371 0
0.258117 0.107583 0.0145029 0.63996 0.134371 0
0.258145 0.107613 0.0146 0.641476 0.13455 0
0.262377 0.109296 0 0.655453 0.135657 0
0.262377 0.109296 0.0059766 0.655453 0.135657 0
0.261512 0.108424 0.00298519 0.647408 0.13736 0
0.261512 0.108424 0.0116148 0.647408 0.13736 0
0.262377 0.109296 0.0146 0.655453 0.135657 0
0.258231 0.107641 0 0.640533 0.134479 0
0.258188 0.107598 0.000147746 0.640134 0.134563 0
0.258188 0.107598 0.0144523 0.640134 0.134563 0
0.258231 0.107641 0.0146 0.640533 0.134479 0
0.266609 0.111235 0 0.652664 0.132185 0
0.265807 0.111002 0.0118326 0.651963 0.136509 0
0.265807 0.111002 0.00276739 0.651963 0.136509 0
0.266609 0.111235 0.0126323 0.652664 0.132185 0
0.266609 0.111235 0.0146 0.652664 0.132185 0
0.263948 0.11023 0.0073 0.655308 0.141504 0
0.265618 0.110813 0 0.65124 0.133025 0
0.265618 0.110813 0.0146 0.65124 0.133025 0
0.266847 0.111569 0.0137764 0.652357 0.132495 0
0.266847 0.111569 0.000823584 0.652357 0.132495 0
0.267815 0.111809 0.0146 0.655307 0.132653 0
0.267815 0.111809 0.0041633 0.655307 0.132653 0
0.267815 0.111809 0 0.655307 0.132653 0
0.270841 0.113145 0 0.673721 0.132461 0
0.270841 0.113145 0.00458554 0.673721 0.132461 0
0.270202 0.112451 0.00220323 0.661994 0.133416 0
0.270202 0.112451 0.0123968 0.661994 0.133416 0
0.270841 0.113145 0.0146 0.673721 0.132461 0
0.275072 0.115103 0 0.667433 0.125724 0
0.275072 0.115103 0.0113062 0.667433 0.125724 0
0.272928 0.113862 0.00726728 0.669356 0.14064 0
0.275072 0.115103 0.0146 0.667433 0.125724 0
0.273358 0.114339 0 0.664728 0.128295 0
0.273358 0.114339 0.0146 0.664728 0.128295 0
0.275469 0.115664 0.0132311 0.666673 0.126079 0
0.275469 0.115664 0.00136889 0.666673 0.126079 0
0.27704 0.116063 0.0146 0.67201 0.126267 0
0.27704 0.116063 0.00678641 0.67201 0.126267 0
0.27704 0.116063 0 0.67201 0.126267 0
0.279304 0.117122 0 0.693007 0.126545 0
0.279304 0.117122 0.00363584 0.693007 0.126545 0
0.278796 0.116573 0.00175315 0.677387 0.12689 0
0.278796 0.116573 0.0128468 0.677387 0.12689 0
0.279304 0.117122 0.0146 0.693007 0.126545 0
0.283536 0.11902 0 0.684617 0.118099 0
0.283536 0.11902 0.0101487 0.684617 0.118099 0
0.281199 0.117527 0.00704585 0.685421 0.131888 0
0.283536 0.11902 0.0146 0.684617 0.118099 0
0.281232 0.118 0 0.68035 0.122224 0
0.281232 0.118 0.0146 0.68035 0.122224 0
0.284088 0.119762 0.0126973 0.683644 0.118959 0
0.284088 0.119762 0.00190267 0.683644 0.118959 0
0.286221 0.120317 0.0146 0.690368 0.11953 0
0.286221 0.120317 0.00926238 0.690368 0.11953 0
0.286221 0.120317 0 0.690368 0.11953 0
0.287768 0.121064 0 0.710825 0.122051 0
0.287768 0.121064 0.00256627 0.710825 0.122051 0
0.287411 0.120676 0.00123299 0.693857 0.120161 0
0.287411 0.120676 0.013367 0.693857 0.120161 0
0.287768 0.121064 0.0146 0.710825 0.122051 0
0.292 0.122471 0 0.704648 0.114698 0
0.292 0.122471 0.0073957 0.704648 0.114698 0
0.290729 0.121594 0.0073 0.700764 0.124377 0
0.292 0.122471 0.0146 0.704648 0.114698 0
0.288857 0.121411 0 0.697743 0.118576 0
0.28848 0.121033 0.00245756 0.696305 0.123585 0
0.28848 0.121033 0.0121424 0.696305 0.123585 0
0.288857 0.121411 0.0146 0.697743 0.118576 0
0.298 0.0486801 0 0.096074 0.0571322 0
0.297887 0.0482398 0.000826714 0.0472794 0.0546332 0
0.298 0.0486801 0.00233762 0.096074 0.0571322 0
0.297887 0.0482398 0.0137733 0.0472794 0.0546332 0
0.298 0.0486801 0.0146 0.096074 0.0571322 0
0.297814 0.047999 0 -1.36196e-15 -1.5738e-15 0
0.297814 0.047999 0.0132451 0 0 0
0.297814 0.047999 0.0146 0 0 0
0.298348 0.0515128 0.0120599 0.462372 0.337205 0
0.299639 0.0522529 0.0146 0.57238 0.208102 0
0.298348 0.0515128 0.00254005 0.462372 0.337205 0
0.299639 0.0522529 0.0119687 0.57238 0.208102 0
0.299639 0.0522529 0 0.57238 0.208102 0
0.3 0.0526903 0 0.603557 0.184849 0
0.29991 0.0524435 0.000653911 0.596684 0.186601 0
0.3 0.0526903 0.001501 0.603557 0.184849 0
0.29991 0.0524435 0.0139461 0.596684 0.186601 0
0.3 0.0526903 0.0146 0.603557 0.184849 0
0.302 0.0551272 0 0.77528 0.140292 0
0.301414 0.0534992 0.0073 0.734296 0.150994 0
0.302 0.0551272 0.00986472 0.77528 0.140292 0
0.302 0.0551272 0.0146 0.77528 0.140292 0
0.300184 0.0526456 0.00134768 0.631535 0.192594 0
0.3005 0.0533165 0 0.654942 0.185298 0
0.300184 0.0526456 0.0132523 0.631535 0.192594 0
0.3005 0.0533165 0.0146 0.654942 0.185298 0
0.302246 0.0559837 0.0128041 0.906707 0.205618 0
0.302731 0.0565069 0.0146 0.884223 0.179293 0
0.302246 0.0559837 0.00179586 0.906707 0.205618 0
0.302731 0.0565069 0.00533997 0.884223 0.179293 0
0.302731 0.0565069 0 0.884223 0.179293 0
0.304 0.0587836 0 0.877345 0.148939 0
0.303559 0.0574434 0.00321404 0.879842 0.147727 0
0.304 0.0587836 0.00781394 0.877345 0.148939 0
0.303559 0.0574434 0.011386 0.879842 0.147727 0
0.304 0.0587836 0.0146 0.877345 0.148939 0
0.304359 0.0599971 0.0119787 0.945625 0.154991 0
0.305161 0.0607609 0.0146 0.921334 0.115138 0
0.304359 0.0599971 0.00262133 0.945625 0.154991 0
0.305161 0.0607609 0.00848003 0.921334 0.115138 0
0.305161 0.0607609 0 0.921334 0.115138 0
0.306 0.0622122 0 0.902282 0.106609 0
0.305741 0.0613105 0.00188629 0.907717 0.102516 0
0.306 0.0622122 0.00498104 0.902282 0.106609 0
0.305741 0.0613105 0.0127137 0.907717 0.102516 0
0.306 0.0622122 0.0146 0.902282 0.106609 0
0.308 0.0644717 0 0.835804 0.0919445 0
0.307766 0.0645189 0.0017021 0.84375 0.114999 0
0.307766 0.0645189 0.0128979 0.84375 0.114999 0
0.308 0.0644717 0.0127357 0.835804 0.0919445 0
0.308 0.0644717 0.0146 0.835804 0.0919445 0
0.306601 0.0637356 0.0073 0.885321 0.155208 0
0.307439 0.0638233 0 0.853506 0.096798 0
0.307439 0.0638233 0.0146 0.853506 0.096798 0
0.308111 0.0647788 0.01379 0.818907 0.0872366 0
0.308684 0.0650149 0.0146 0.808399 0.0858296 0
0.308111 0.0647788 0.000810034 0.818907 0.0872366 0
0.308684 0.0650149 0.0049938 0.808399 0.0858296 0
0.308684 0.0650149 0 0.808399 0.0858296 0
0.31 0.0660446 0 0.774597 0.0725528 0
0.309795 0.0654491 0.00149029 0.780187 0.0719357 0
0.31 0.0660446 0.00353404 0.774597 0.0725528 0
0.309795 0.0654491 0.0131097 0.780187 0.0719357 0
0.31 0.0660446 0.0146 0.774597 0.0725528 0
0.312 0.0678586 0 0.749052 0.108792 0
0.311138 0.0668482 0.00629229 0.758673 0.137907 0
0.312 0.0678586 0.0097599 0.749052 0.108792 0
0.311138 0.0668482 0.00830771 0.758673 0.137907 0
0.312 0.0678586 0.0146 0.749052 0.108792 0
0.310698 0.0665005 0.00509877 0.762302 0.122448 0
0.310855 0.0668353 0 0.7594 0.0899407 0
0.310698 0.0665005 0.00950123 0.762302 0.122448 0
0.310855 0.0668353 0.0146 0.7594 0.0899407 0
0.314 0.0685901 0 0.716998 0.157915 0
0.313819 0.0688845 0.00131908 0.704754 0.164693 0
0.313819 0.0688845 0.0132809 0.704754 0.164693 0
0.314 0.0685901 0.0122704 0.716998 0.157915 0
0.314 0.0685901 0.0146 0.716998 0.157915 0
0.312316 0.0685952 0.0122882 0.72566 0.146154 0
0.312316 0.0685952 0.00231184 0.72566 0.146154 0
0.313618 0.0684566 0 0.718488 0.142944 0
0.313618 0.0684566 0.0146 0.718488 0.142944 0
0.314225 0.0687899 0.0129561 0.697313 0.179065 0
0.315528 0.0682652 0.0111556 0.682117 0.216479 0
0.314225 0.0687899 0.00164388 0.697313 0.179065 0
0.315528 0.0682652 0.00344441 0.682117 0.216479 0
0.315999 0.0672177 0 0.714236 0.225447 0
0.315999 0.0672177 0.00756047 0.714236 0.225447 0
0.315999 0.0672177 0.0146 0.714236 0.225447 0
0.315262 0.0677012 0 0.724607 0.174953 0
0.315262 0.0677012 0.0146 0.724607 0.174953 0
0.294 0.123911 0 0.699902 0.103788 0
0.293678 0.123886 0.0122505 0.697674 0.108519 0
0.293678 0.123886 0.00234954 0.697674 0.108519 0
0.294 0.123911 0.0123368 0.699902 0.103788 0
0.294 0.123911 0.0146 0.699902 0.103788 0
0.292611 0.123271 0.0073 0.699624 0.117313 0
0.293545 0.123604 0 0.699715 0.106088 0
0.293545 0.123604 0.0146 0.699715 0.106088 0
0.294143 0.124267 0.0135583 0.698555 0.104146 0
0.294143 0.124267 0.00104169 0.698555 0.104146 0
0.295245 0.124571 0.0146 0.700727 0.100869 0
0.295245 0.124571 0.00909058 0.700727 0.100869 0
0.295245 0.124571 0 0.700727 0.100869 0
0.296 0.124959 0 0.721214 0.102538 0
0.296 0.124959 0.0013335 0.721214 0.102538 0
0.295904 0.124774 0.000699866 0.701652 0.0983307 0
0.295904 0.124774 0.0139001 0.701652 0.0983307 0
0.296 0.124959 0.0146 0.721214 0.102538 0
0.298 0.125411 0 0.738999 0.10804 0
0.298 0.125411 0.00288546 0.738999 0.10804 0
0.297777 0.125045 0.00162805 0.707649 0.0998595 0
0.297777 0.125045 0.0129719 0.707649 0.0998595 0
0.298 0.125411 0.0146 0.738999 0.10804 0
0.296199 0.124993 0 0.717402 0.102567 0
0.296114 0.124813 0.000831792 0.701735 0.0984759 0
0.296114 0.124813 0.0137682 0.701735 0.0984759 0
0.296199 0.124993 0.0146 0.717402 0.102567 0
0.3 0.125884 0 0.741035 0.108145 0
0.3 0.125884 0.00450692 0.741035 0.108145 0
0.299628 0.125362 0.00271498 0.712525 0.103519 0
0.299628 0.125362 0.011885 0.712525 0.103519 0
0.3 0.125884 0.0146 0.741035 0.108145 0
0.298445 0.125517 0 0.728315 0.105281 0
0.298275 0.125156 0.00200781 0.708092 0.102054 0
0.298275 0.125156 0.0125922 0.708092 0.102054 0
0.298445 0.125517 0.0146 0.728315 0.105281 0
0.302 0.126807 0 0.733994 0.096675 0
0.302 0.126807 0.00767648 0.733994 0.096675 0
0.300938 0.125886 0.0071507 0.713977 0.106639 0
0.302 0.126807 0.0146 0.733994 0.096675 0
0.300793 0.126257 0 0.727466 0.0995604 0
0.300793 0.126257 0.0146 0.727466 0.0995604 0