# p  POINT_DATA 514
# x y z  p
0.316061 0.0479729 0.0145367 96845.8
0.316181 0.047999 0.0146 96845.7
0.316061 0.0479729 6.33055e-05 96845.8
0.316181 0.047999 0.000187912 96845.7
0.316181 0.047999 0 96845.7
0.315999 0.0479474 0.0146 96845.8
0.315999 0.0479474 0.0144745 96845.8
0.315999 0.0479474 0 96845.8
0.0126957 0.0732329 0 96879.3
0.0125256 0.0733519 0.0144045 96877.9
0.0125256 0.0733519 0.000195504 96877.9
0.0126957 0.0732329 0.0142683 96879.3
0.0126957 0.0732329 0.0146 96879.3
0.000172652 0.0733493 0.0144015 96877.8
0.000172652 0.0733493 0.00019855 96877.8
0 0.0732284 0.0146 96879.2
0 0.0732284 0.0142632 96879.2
0 0.0732284 0 96879.2
0.0124073 0.0732329 0 96879.3
0.0124073 0.0732329 0.0146 96879.3
0.0253913 0.0731442 0 96879.6
0.0251703 0.0733007 0.0143459 96877.9
0.0251703 0.0733007 0.000254119 96877.9
0.0253913 0.0731442 0.0141668 96879.6
0.0253913 0.0731442 0.0146 96879.6
0.0128657 0.0733519 0.0144045 96877.9
0.0128657 0.0733519 0.000195545 96877.9
0.025016 0.0731456 0 96879.6
0.025016 0.0731456 0.0146 96879.6
0.038087 0.0728834 0 96880.4
0.0377126 0.0731465 0.0141695 96877.4
0.0377126 0.0731465 0.000430489 96877.4
0.038087 0.0728834 0.0138685 96880.4
0.038087 0.0728834 0.0146 96880.4
0.0256163 0.0732967 0.0143413 96877.9
0.0256163 0.0732967 0.000258708 96877.9
0.0374576 0.0728902 0 96880.4
0.0374576 0.0728902 0.0146 96880.4
0.0507826 0.0724927 0 96881.4
0.0501733 0.0729103 0.0138993 96876.8
0.0501733 0.0729103 0.000700743 96876.8
0.0507826 0.0724927 0.0134215 96881.4
0.0507826 0.0724927 0.0146 96881.4
0.0384742 0.0731336 0.0141547 96877.4
0.0384742 0.0731336 0.000445286 96877.4
0.0497749 0.0725098 0 96881.6
0.0497749 0.0725098 0.0146 96881.6
0.0634783 0.0720013 0 96882.6
0.0625633 0.072603 0.0135478 96875.9
0.0625633 0.072603 0.00105224 96875.9
0.0634783 0.0720013 0.0128593 96882.6
0.0634783 0.0720013 0.0146 96882.6
0.0514222 0.0728799 0.0138645 96876.6
0.0514222 0.0728799 0.00073554 96876.6
0.061998 0.0720349 0 96882.8
0.061998 0.0720349 0.0146 96882.8
0.0761739 0.0714306 0 96883.8
0.0748864 0.0722286 0.0131194 96874.8
0.0748864 0.0722286 0.00148065 96874.8
0.0761739 0.0714306 0.0122064 96883.8
0.0761739 0.0714306 0.0146 96883.8
0.0644536 0.0725424 0.0134784 96875.6
0.0644536 0.0725424 0.00112161 96875.6
0.0741494 0.0714877 0 96884.2
0.0741494 0.0714877 0.0146 96884.2
0.0888696 0.0708028 0 96884.9
0.0871443 0.0717886 0.012616 96873.6
0.0871443 0.0717886 0.00198401 96873.6
0.0888696 0.0708028 0.0114882 96884.9
0.0888696 0.0708028 0.0146 96884.9
0.0775687 0.0721207 0.012996 96874.4
0.0775687 0.0721207 0.00160403 96874.4
0.0862508 0.0708903 0 96885.4
0.0862508 0.0708903 0.0146 96885.4
0.101565 0.0701412 0 96885.9
0.0993372 0.0712832 0.0120378 96872.2
0.0993372 0.0712832 0.00256223 96872.2
0.101565 0.0701412 0.0107313 96885.9
0.101565 0.0701412 0.0146 96885.9
0.0907694 0.0716131 0.0124152 96872.9
0.0907694 0.0716131 0.00218476 96872.9
0.0983229 0.0702636 0 96886.5
0.0983229 0.0702636 0.0146 96886.5
0.114261 0.0694645 0 96886.8
0.111468 0.070715 0.0113878 96870.8
0.111468 0.070715 0.00321223 96870.8
0.114261 0.0694645 0.00995723 96886.8
0.114261 0.0694645 0.0146 96886.8
0.104055 0.0710196 0.0117362 96871.3
0.104055 0.0710196 0.00286379 96871.3
0.110389 0.0696305 0 96887.4
0.110389 0.0696305 0.0146 96887.4
0.126957 0.0687895 0 96888
0.120483 0.0701778 0.00725169 96869.8
0.126957 0.0687895 0.0091849 96888
0.126957 0.0687895 0.0146 96888
0.122469 0.0690115 0 96888.3
0.122469 0.0690115 0.0146 96888.3
0.139652 0.0681597 0 96889.4
0.133215 0.0693279 0.00726582 96869.3
0.139652 0.0681597 0.00846443 96889.4
0.139652 0.0681597 0.0146 96889.4
0.134568 0.0684123 0 96889.3
0.134568 0.0684123 0.0146 96889.3
0.152348 0.067646 0 96890.8
0.145953 0.0684527 0.00728195 96869.2
0.152348 0.067646 0.00787672 96890.8
0.152348 0.067646 0.0146 96890.8
0.146729 0.0678751 0 96890.4
0.146729 0.0678751 0.0146 96890.4
0.165043 0.0673057 0 96892.4
0.158682 0.0677031 0.00729458 96869.1
0.165043 0.0673057 0.00748741 96892.4
0.165043 0.0673057 0.0146 96892.4
0.159022 0.0674695 0 96891.4
0.159022 0.0674695 0.0146 96891.4
0.177739 0.0672471 0 96894.1
0.171391 0.0672504 0.00729981 96869.1
0.177739 0.0672471 0.00742038 96894.1
0.177739 0.0672471 0.0146 96894.1
0.171525 0.0672759 0 96892.5
0.171525 0.0672759 0.0146 96892.5
0.190435 0.067564 0 96895.5
0.184095 0.0674868 0.00730318 96869.1
0.190435 0.067564 0.00778297 96895.5
0.190435 0.067564 0.0146 96895.5
0.184354 0.0674098 0 96893.5
0.184354 0.0674098 0.0146 96893.5
0.20313 0.0685494 0 96895.4
0.196877 0.0684203 0.00733633 96869.1
0.20313 0.0685494 0.00891026 96895.4
0.20313 0.0685494 0.0146 96895.4
0.197787 0.0681516 0 96893.5
0.197787 0.0681516 0.0146 96893.5
0.215826 0.070503 0 96893.2
0.213183 0.0708657 0.0115602 96874.2
0.213183 0.0708657 0.00303983 96874.2
0.215826 0.070503 0.0111453 96893.2
0.215826 0.070503 0.0146 96893.2
0.206609 0.070026 0.0073 96871.8
0.212358 0.0700368 0 96891.3
0.212358 0.0700368 0.0146 96891.3
0.21753 0.07181 0.0126404 96878.5
0.21753 0.07181 0.00195956 96878.5
0.227435 0.0735228 0.0146 96884.1
0.227435 0.0735228 0.0133508 96884.1
0.227435 0.0735228 0 96884.1
0.228522 0.0738259 0 96884.5
0.228522 0.0738259 0.000346724 96884.5
0.228371 0.0736742 0.000173146 96884.5
0.228371 0.0736742 0.0144269 96884.5
0.228522 0.0738259 0.0146 96884.5
0.241217 0.0776148 0 96890.1
0.241217 0.0776148 0.00468137 96890.1
0.239088 0.0756632 0.00244869 96889.6
0.239088 0.0756632 0.0121513 96889.6
0.241217 0.0776148 0.0146 96890.1
0.228912 0.0739154 0 96884.4
0.22873 0.0737323 0.000239643 96884.4
0.22873 0.0737323 0.0143604 96884.4
0.228912 0.0739154 0.0146 96884.4
0.253913 0.0824763 0 96882.9
0.253913 0.0824763 0.010243 96882.9
0.247285 0.0789823 0.00719256 96874.4
0.253913 0.0824763 0.0146 96882.9
0.247945 0.0802857 0 96883.6
0.247945 0.0802857 0.0146 96883.6
0.255699 0.0844894 0.0125461 96869.2
0.255699 0.0844894 0.0020539 96869.2
0.26216 0.0862847 0.0146 96870.3
0.26216 0.0862847 0.00948377 96870.3
0.26216 0.0862847 0 96870.3
0.266609 0.0883676 0 96870.6
0.266609 0.0883676 0.00238287 96870.6
0.26558 0.0873188 0.00118302 96870.6
0.26558 0.0873188 0.013417 96870.6
0.266609 0.0883676 0.0146 96870.6
0.279304 0.0929377 0 96868.7
0.279304 0.0929377 0.00761115 96868.7
0.275441 0.0901683 0.0073 96869.6
0.279304 0.0929377 0.0146 96868.7
0.269722 0.0894146 0 96869.7
0.268621 0.0883071 0.00231362 96870.1
0.268621 0.0883071 0.0122864 96870.1
0.269722 0.0894146 0.0146 96869.7
0.282885 0.0954477 0.0073 96862
0.290935 0.0979759 0.013375 96857.6
0.290935 0.0979759 0.00122496 96857.6
0.292 0.0980183 0 96857.2
0.292 0.0980183 0.0134235 96857.2
0.292 0.0980183 0.0146 96857.2
0.29041 0.0974488 0 96859.2
0.29041 0.0974488 0.0146 96859.2
0.292219 0.0985805 0.0140666 96855.8
0.292219 0.0985805 0.000533358 96855.8
0.293852 0.0990467 0.0146 96854.7
0.293852 0.0990467 0.00450603 96854.7
0.293852 0.0990467 0 96854.7
0.298 0.101168 0 96852.1
0.298 0.101168 0.00242673 96852.1
0.297448 0.100221 0.00134343 96852.5
0.297448 0.100221 0.0132566 96852.5
0.298 0.101168 0.0146 96852.1
0.304 0.102643 0 96850.4
0.304 0.102643 0.0041146 96850.4
0.302981 0.101213 0.00247814 96851.8
0.302981 0.101213 0.0121219 96851.8
0.304 0.102643 0.0146 96850.4
0.29911 0.101408 0 96852.4
0.298687 0.100509 0.00167294 96853.3
0.298687 0.100509 0.0129271 96853.3
0.29911 0.101408 0.0146 96852.4
0.31 0.103974 0 96850.5
0.31 0.103974 0.00563697 96850.5
0.30837 0.102513 0.0073 96854.9
0.31 0.103974 0.0146 96850.5
0.305889 0.103064 0 96851
0.305394 0.102013 0.0033939 96854.6
0.305394 0.102013 0.0112061 96854.6
0.305889 0.103064 0.0146 96851
0.315999 0.105854 0 96852.5
0.315999 0.105854 0.00778763 96852.5
0.312915 0.103974 0.00723179 96860.2
0.315999 0.105854 0.0146 96852.5
0.312721 0.104835 0 96852.1
0.312721 0.104835 0.0146 96852.1
0.330105 0.0562673 0 96825.7
0.324943 0.0526696 0.0073 96816.4
0.330105 0.0562673 0.00945927 96825.7
0.330105 0.0562673 0.0146 96825.7
0.332272 0.0588005 0.0123573 96826
0.340984 0.0607609 0.0146 96821.2
0.332272 0.0588005 0.00224274 96826
0.340984 0.0607609 0.011261 96821.2
0.340984 0.0607609 0 96821.2
0.34421 0.0621927 0 96820.5
0.343533 0.0613738 0.000701151 96819.1
0.34421 0.0621927 0.00163803 96820.5
0.343533 0.0613738 0.0138988 96819.1
0.34421 0.0621927 0.0146 96820.5
0.358315 0.0680009 0 96822.6
0.354024 0.0646436 0.0073 96815.1
0.358315 0.0680009 0.00828278 96822.6
0.358315 0.0680009 0.0146 96822.6
0.345806 0.0622051 0.0016522 96817.6
0.347002 0.063287 0 96820.3
0.345806 0.0622051 0.0129478 96817.6
0.347002 0.063287 0.0146 96820.3
0.361149 0.0709591 0.011667 96822.1
0.369187 0.0735228 0.0146 96820.1
0.361149 0.0709591 0.00293297 96822.1
0.369187 0.0735228 0.0112528 96820.1
0.369187 0.0735228 0 96820.1
0.372421 0.0753262 0 96819.5
0.37162 0.0742472 0.000828741 96819.7
0.372421 0.0753262 0.00206309 96819.5
0.37162 0.0742472 0.0137713 96819.7
0.372421 0.0753262 0.0146 96819.5
0.386526 0.0839626 0 96819.5
0.380457 0.0790141 0.00628217 96807.4
0.386526 0.0839626 0.0119433 96819.5
0.380457 0.0790141 0.00831783 96807.4
0.386526 0.0839626 0.0146 96819.5
0.376169 0.0769143 0.0038799 96811.6
0.378802 0.0792969 0 96819
0.376169 0.0769143 0.0107201 96811.6
0.378802 0.0792969 0.0146 96819
0.387547 0.0853612 0.0135434 96820.5
0.389364 0.0862847 0.0146 96820.4
0.387547 0.0853612 0.00105656 96820.5
0.389364 0.0862847 0.00293749 96820.4
0.389364 0.0862847 0 96820.4
0.400631 0.0964963 0 96831.1
0.396451 0.0900666 0.0073 96819.6
0.400631 0.0964963 0.0116823 96831.1
0.400631 0.0964963 0.0146 96831.1
0.401597 0.0981727 0.0136002 96832.1
0.403165 0.0990467 0.0146 96832.7
0.401597 0.0981727 0.000999812 96832.1
0.403165 0.0990467 0.00262265 96832.7
0.403165 0.0990467 0 96832.7
0.330105 0.109206 0 96857.8
0.32722 0.109198 0.0116138 96865.1
0.32722 0.109198 0.00298617 96865.1
0.330105 0.109206 0.0116224 96857.8
0.330105 0.109206 0.0146 96857.8
0.320325 0.107895 0.0073 96865.9
0.326208 0.108283 0 96856.9
0.326208 0.108283 0.0146 96856.9
0.331434 0.110606 0.0132244 96863.9
0.331434 0.110606 0.00137561 96863.9
0.342871 0.111809 0.0146 96854.3
0.342871 0.111809 0.013214 96854.3
0.342871 0.111809 0 96854.3
0.412597 0.109873 0.00221462 96841
0.408995 0.104242 0.0073 96844.7
0.412597 0.109873 0.0123854 96841
0.413585 0.111809 0.0146 96838.7
0.413585 0.111809 0.0134079 96838.7
0.413585 0.111809 0 96838.7
0.410332 0.107824 0 96836.5
0.410332 0.107824 0.0146 96836.5
0.34421 0.112091 0 96853.5
0.34421 0.112091 0.00032278 96853.5
0.344062 0.111943 0.000153385 96853.5
0.344062 0.111943 0.0144466 96853.5
0.34421 0.112091 0.0146 96853.5
0.358315 0.11683 0 96849.2
0.358315 0.11683 0.00574505 96849.2
0.355945 0.113953 0.00245328 96847.4
0.355945 0.113953 0.0121467 96847.4
0.358315 0.11683 0.0146 96849.2
0.344691 0.112244 0 96853.7
0.344399 0.11198 0.000195609 96853.6
0.344399 0.11198 0.0144044 96853.6
0.344691 0.112244 0.0146 96853.7
0.372421 0.124251 0 96844.6
0.372024 0.124212 0.0141893 96846.6
0.372024 0.124212 0.000410677 96846.6
0.372421 0.124251 0.0142339 96844.6
0.372421 0.124251 0.0146 96844.6
0.362724 0.120582 0.0073 96866.4
0.371684 0.123904 0 96845.1
0.371684 0.123904 0.0146 96845.1
0.372571 0.124435 0.0144445 96844.4
0.372571 0.124435 0.000155538 96844.4
0.372897 0.124571 0.0146 96844.2
0.372897 0.124571 0.000493162 96844.2
0.372897 0.124571 0 96844.2
0.414737 0.113284 0 96838.5
0.414267 0.112233 0.000485778 96838.9
0.414737 0.113284 0.00168772 96838.5
0.414267 0.112233 0.0141142 96838.9
0.414737 0.113284 0.0146 96838.5
0.418689 0.120995 0.0073 96834
0.422526 0.124571 0.0146 96834.1
0.422526 0.124571 0.00806261 96834.1
0.422526 0.124571 0 96834.1
0.386526 0.134572 0 96832.2
0.386526 0.134572 0.0114417 96832.2
0.382401 0.128302 0.0073 96833.7
0.386526 0.134572 0.0146 96832.2
0.387633 0.13633 0.0134537 96832.4
0.387633 0.13633 0.00114632 96832.4
0.38932 0.137332 0.0146 96832.6
0.38932 0.137332 0.00289207 96832.6
0.38932 0.137332 0 96832.6
0.428842 0.137209 0 96836.7
0.425814 0.12731 0.00313432 96832.7
0.428842 0.137209 0.0144588 96836.7
0.425814 0.12731 0.0114657 96832.7
0.428842 0.137209 0.0146 96836.7
0.428875 0.137302 0.0145654 96836.7
0.42891 0.137332 0.0146 96836.7
0.428875 0.137302 3.45953e-05 96836.7
0.42891 0.137332 7.09884e-05 96836.7
0.42891 0.137332 0 96836.7
0.396404 0.14627 0.00437552 96832.9
0.396404 0.14627 0.0102245 96832.9
0.394884 0.142532 0.00594881 96832.8
0.394884 0.142532 0.00865119 96832.8
0.397194 0.150094 0.0146 96832.7
0.397194 0.150094 0.0110427 96832.7
0.397194 0.150094 0 96832.7
0.392463 0.142704 0 96832.8
0.392463 0.142704 0.0146 96832.8
0.430299 0.148776 0.0130915 96840
0.431083 0.150094 0.0146 96839.8
0.430299 0.148776 0.00150855 96840
0.431083 0.150094 0.00232008 96839.8
0.431083 0.150094 0 96839.8
0.428893 0.137379 5.34925e-05 96836.7
0.428917 0.1374 0 96836.7
0.428917 0.1374 0.0146 96836.7
0.428893 0.137379 0.0145465 96836.7
0.400593 0.162822 3.9079e-05 96834.2
0.400593 0.162822 0.0145609 96834.2
0.398954 0.151612 0.00173608 96832.8
0.398954 0.151612 0.0128639 96832.8
0.400568 0.162856 0.0146 96834.2
0.400568 0.162856 0.0145341 96834.2
0.400568 0.162856 0 96834.2
0.400553 0.162786 0 96834.2
0.400553 0.162786 0.0146 96834.2
0.428959 0.16275 0.0144788 96840.5
0.429006 0.162856 0.0146 96840.5
0.428959 0.16275 0.000121196 96840.5
0.429006 0.162856 0.00016971 96840.5
0.429006 0.162856 0 96840.5
0.430275 0.151391 0.00148299 96839.9
0.430969 0.152019 0 96839.7
0.430969 0.152019 0.0146 96839.7
0.430275 0.151391 0.013117 96839.9
0.400631 0.163106 0 96834.3
0.400631 0.163106 0.00028531 96834.3
0.400596 0.162888 3.61704e-05 96834.2
0.400596 0.162888 0.0145638 96834.2
0.400631 0.163106 0.0146 96834.3
0.402159 0.174236 0.0130186 96840.4
0.402159 0.174236 0.0015814 96840.4
0.408299 0.175618 0.0146 96841.8
0.408299 0.175618 0.00793659 96841.8
0.408299 0.175618 0 96841.8
0.428842 0.163137 0 96840.4
0.425701 0.172776 0.0113487 96840.1
0.425701 0.172776 0.0032513 96840.1
0.428842 0.163137 0.000321401 96840.4
0.428842 0.163137 0.0146 96840.4
0.418677 0.175618 0.0146 96841.7
0.418677 0.175618 0.00407857 96841.7
0.418677 0.175618 0 96841.7
0.423609 0.170884 0 96838.6
0.423609 0.170884 0.0146 96838.6
0.428988 0.162989 0 96840.4
0.428931 0.162937 9.19625e-05 96840.5
0.428988 0.162989 0.0146 96840.4
0.428931 0.162937 0.014508 96840.5
0.414737 0.178623 0 96841.6
0.414737 0.178623 0.00343708 96841.6
0.409766 0.180115 0.0073 96850.5
0.414737 0.178623 0.0146 96841.6
0.417577 0.178188 0 96840.6
0.416456 0.177174 0.00178029 96841.3
0.417577 0.178188 0.0146 96840.6
0.416456 0.177174 0.0128197 96841.3
0.428842 0.204482 0 96827.6
0.423519 0.209088 0.0073 96833.3
0.428842 0.204482 0.0038209 96827.6
0.428842 0.204482 0.0146 96827.6
0.420557 0.213904 0.0146 96832.3
0.420557 0.213904 0.00602453 96832.3
0.420557 0.213904 0 96832.3
0.423018 0.208635 0 96831.5
0.423018 0.208635 0.0146 96831.5
0.442947 0.205422 0 96828.7
0.440879 0.203013 0.00214036 96824
0.442947 0.205422 0.00489621 96828.7
0.440879 0.203013 0.0124596 96824
0.442947 0.205422 0.0146 96828.7
0.430341 0.202499 0.00155192 96824.1
0.432329 0.204297 0 96827.6
0.430341 0.202499 0.0130481 96824.1
0.432329 0.204297 0.0146 96827.6
0.448027 0.209308 0.0073 96831
0.452692 0.213904 0.0146 96834.3
0.452692 0.213904 0.0100864 96834.3
0.452692 0.213904 0 96834.3
0.414737 0.222658 0 96838
0.41362 0.225656 0.00115592 96838.6
0.41362 0.225656 0.0134441 96838.6
0.414737 0.222658 0.0100149 96838
0.414737 0.222658 0.0146 96838
0.412187 0.226666 0.0146 96838.8
0.412187 0.226666 0.0119606 96838.8
0.412187 0.226666 0 96838.8
0.412755 0.224873 0 96839
0.412755 0.224873 0.0146 96839
0.417237 0.216167 0.00258852 96834.1
0.419002 0.217763 0 96838.7
0.417237 0.216167 0.0120115 96834.1
0.419002 0.217763 0.0146 96838.7
0.456542 0.226205 0.000527912 96844.6
0.455485 0.215322 0.00162216 96836.6
0.456542 0.226205 0.0140721 96844.6
0.455485 0.215322 0.0129778 96836.6
0.455888 0.226666 0.0146 96845.8
0.455888 0.226666 0.0133951 96845.8
0.455888 0.226666 0 96845.8
0.455518 0.225277 0 96843.5
0.455518 0.225277 0.0146 96843.5
0.409587 0.234769 0.00532979 96840
0.409587 0.234769 0.00927021 96840
0.407935 0.23282 0.00704007 96836.2
0.407935 0.23282 0.00755993 96836.2
0.414353 0.239428 0.0146 96850.3
0.414353 0.239428 0.014203 96850.3
0.414353 0.239428 0 96850.3
0.414432 0.239153 0 96850.2
0.414432 0.239153 0.0146 96850.2
0.442947 0.23709 0 96852.6
0.441828 0.238415 0.0134418 96855.4
0.441828 0.238415 0.00115825 96855.4
0.442947 0.23709 0.0119259 96852.6
0.442947 0.23709 0.0146 96852.6
0.434656 0.239428 0.0146 96853.9
0.434656 0.239428 0.00601781 96853.9
0.434656 0.239428 0 96853.9
0.44057 0.237277 0 96852
0.44057 0.237277 0.0146 96852
0.45247 0.235282 0.0073 96858.6
0.455927 0.227684 0.00116436 96848.6
0.455927 0.227684 0.0134356 96848.6
0.445212 0.237379 0.0122557 96857.1
0.445212 0.237379 0.00234427 96857.1
0.450453 0.233457 0 96847.9
0.450453 0.233457 0.0146 96847.9
0.414737 0.239709 0 96850.4
0.414737 0.239709 0.000322024 96850.4
0.414441 0.239695 0.00030556 96850.8
0.414441 0.239695 0.0142944 96850.8
0.414737 0.239709 0.0146 96850.4
0.428842 0.240979 0 96853.1
0.428842 0.240979 0.00177481 96853.1
0.427343 0.240784 0.00155134 96854.5
0.427343 0.240784 0.0130487 96854.5
0.428842 0.240979 0.0146 96853.1
0.415004 0.23967 0 96850.3
0.414992 0.239659 0.000264766 96850.6
0.414992 0.239659 0.0143352 96850.6
0.415004 0.23967 0.0146 96850.3
0.430322 0.240767 0 96852.8
0.429685 0.240191 0.0008728 96853
0.430322 0.240767 0.0146 96852.8
0.429685 0.240191 0.0137272 96853
