# U  POINT_DATA 514
# x y z  U_x U_y U_z
0.316061 0.0479729 0.0145367 0.00209908 -0.000480495 0
0.316181 0.047999 0.0146 0.00277262 -0.000218788 0
0.316061 0.0479729 6.33055e-05 0.00209908 -0.000480495 0
0.316181 0.047999 0.000187912 0.00277262 -0.000218788 0
0.316181 0.047999 0 0.00277262 -0.000218788 0
0.315999 0.0479474 0.0146 0 0 0
0.315999 0.0479474 0.0144745 0 0 0
0.315999 0.0479474 0 0 0 0
0.0126957 0.0732329 0 0.0492081 -0.270363 0
0.0125256 0.0733519 0.0144045 0.0486629 -0.270964 0
0.0125256 0.0733519 0.000195504 0.0486629 -0.270964 0
0.0126957 0.0732329 0.0142683 0.0492081 -0.270363 0
0.0126957 0.0732329 0.0146 0.0492081 -0.270363 0
0.000172652 0.0733493 0.0144015 0.000777167 -0.00691485 0
0.000172652 0.0733493 0.00019855 0.000777167 -0.00691485 0
0 0.0732284 0.0146 0 0 0
0 0.0732284 0.0142632 0 0 0
0 0.0732284 0 0 0 0
0.0124073 0.0732329 0 0.0480978 -0.265258 0
0.0124073 0.0732329 0.0146 0.0480978 -0.265258 0
0.0253913 0.0731442 0 0.0932927 -0.268986 0
0.0251703 0.0733007 0.0143459 0.0924692 -0.269767 0
0.0251703 0.0733007 0.000254119 0.0924692 -0.269767 0
0.0253913 0.0731442 0.0141668 0.0932927 -0.268986 0
0.0253913 0.0731442 0.0146 0.0932927 -0.268986 0
0.0128657 0.0733519 0.0144045 0.0497571 -0.27094 0
0.0128657 0.0733519 0.000195545 0.0497571 -0.27094 0
0.025016 0.0731456 0 0.0919873 -0.26901 0
0.025016 0.0731456 0.0146 0.0919873 -0.26901 0
0.038087 0.0728834 0 0.140345 -0.266732 0
0.0377126 0.0731465 0.0141695 0.138963 -0.26807 0
0.0377126 0.0731465 0.000430489 0.138963 -0.26807 0
0.038087 0.0728834 0.0138685 0.140345 -0.266732 0
0.038087 0.0728834 0.0146 0.140345 -0.266732 0
0.0256163 0.0732967 0.0143413 0.0941296 -0.26973 0
0.0256163 0.0732967 0.000258708 0.0941296 -0.26973 0
0.0374576 0.0728902 0 0.138012 -0.26681 0
0.0374576 0.0728902 0.0146 0.138012 -0.26681 0
0.0507826 0.0724927 0 0.186985 -0.263031 0
0.0501733 0.0729103 0.0138993 0.184743 -0.265207 0
0.0501733 0.0729103 0.000700743 0.184743 -0.265207 0
0.0507826 0.0724927 0.0134215 0.186985 -0.263031 0
0.0507826 0.0724927 0.0146 0.186985 -0.263031 0
0.0384742 0.0731336 0.0141547 0.141753 -0.267939 0
0.0384742 0.0731336 0.000445286 0.141753 -0.267939 0
0.0497749 0.0725098 0 0.183302 -0.263244 0
0.0497749 0.0725098 0.0146 0.183302 -0.263244 0
0.0634783 0.0720013 0 0.233497 -0.258063 0
0.0625633 0.072603 0.0135478 0.230127 -0.261301 0
0.0625633 0.072603 0.00105224 0.230127 -0.261301 0
0.0634783 0.0720013 0.0128593 0.233497 -0.258063 0
0.0634783 0.0720013 0.0146 0.233497 -0.258063 0
0.0514222 0.0728799 0.0138645 0.189276 -0.264887 0
0.0514222 0.0728799 0.00073554 0.189276 -0.264887 0
0.061998 0.0720349 0 0.228132 -0.258504 0
0.061998 0.0720349 0.0146 0.228132 -0.258504 0
0.0761739 0.0714306 0 0.280069 -0.251779 0
0.0748864 0.0722286 0.0131194 0.275322 -0.256278 0
0.0748864 0.0722286 0.00148065 0.275322 -0.256278 0
0.0761739 0.0714306 0.0122064 0.280069 -0.251779 0
0.0761739 0.0714306 0.0146 0.280069 -0.251779 0
0.0644536 0.0725424 0.0134784 0.236956 -0.260655 0
0.0644536 0.0725424 0.00112161 0.236956 -0.260655 0
0.0741494 0.0714877 0 0.272783 -0.252574 0
0.0741494 0.0714877 0.0146 0.272783 -0.252574 0
0.0888696 0.0708028 0 0.326722 -0.243928 0
0.0871443 0.0717886 0.012616 0.32035 -0.24989 0
0.0871443 0.0717886 0.00198401 0.32035 -0.24989 0
0.0888696 0.0708028 0.0114882 0.326722 -0.243928 0
0.0888696 0.0708028 0.0146 0.326722 -0.243928 0
0.0775687 0.0721207 0.012996 0.28495 -0.255086 0
0.0775687 0.0721207 0.00160403 0.28495 -0.255086 0
0.0862508 0.0708903 0 0.317392 -0.245261 0
0.0862508 0.0708903 0.0146 0.317392 -0.245261 0
0.101565 0.0701412 0 0.373221 -0.234066 0
0.0993372 0.0712832 0.0120378 0.364972 -0.241735 0
0.0993372 0.0712832 0.00256223 0.364972 -0.241735 0
0.101565 0.0701412 0.0107313 0.373221 -0.234066 0
0.101565 0.0701412 0.0146 0.373221 -0.234066 0
0.0907694 0.0716131 0.0124152 0.333237 -0.247813 0
0.0907694 0.0716131 0.00218476 0.333237 -0.247813 0
0.0983229 0.0702636 0 0.361841 -0.236184 0
0.0983229 0.0702636 0.0146 0.361841 -0.236184 0
0.114261 0.0694645 0 0.418463 -0.221384 0
0.111468 0.070715 0.0113878 0.408233 -0.231206 0
0.111468 0.070715 0.00321223 0.408233 -0.231206 0
0.114261 0.0694645 0.00995723 0.418463 -0.221384 0
0.114261 0.0694645 0.0146 0.418463 -0.221384 0
0.104055 0.0710196 0.0117362 0.381482 -0.238285 0
0.104055 0.0710196 0.00286379 0.381482 -0.238285 0
0.110389 0.0696305 0 0.405176 -0.224642 0
0.110389 0.0696305 0.0146 0.405176 -0.224642 0
0.126957 0.0687895 0 0.459064 -0.205289 0
0.120483 0.0701778 0.00725169 0.438071 -0.221759 0
0.126957 0.0687895 0.0091849 0.459064 -0.205289 0
0.126957 0.0687895 0.0146 0.459064 -0.205289 0
0.122469 0.0690115 0 0.444113 -0.210166 0
0.122469 0.0690115 0.0146 0.444113 -0.210166 0
0.139652 0.0681597 0 0.498782 -0.185383 0
0.133215 0.0693279 0.00726582 0.479288 -0.205473 0
0.139652 0.0681597 0.00846443 0.498782 -0.185383 0
0.139652 0.0681597 0.0146 0.498782 -0.185383 0
0.134568 0.0684123 0 0.482538 -0.192381 0
0.134568 0.0684123 0.0146 0.482538 -0.192381 0
0.152348 0.067646 0 0.539156 -0.160753 0
0.145953 0.0684527 0.00728195 0.520464 -0.185736 0
0.152348 0.067646 0.00787672 0.539156 -0.160753 0
0.152348 0.067646 0.0146 0.539156 -0.160753 0
0.146729 0.0678751 0 0.522283 -0.170506 0
0.146729 0.0678751 0.0146 0.522283 -0.170506 0
0.165043 0.0673057 0 0.575516 -0.129353 0
0.158682 0.0677031 0.00729458 0.560252 -0.161466 0
0.165043 0.0673057 0.00748741 0.575516 -0.129353 0
0.165043 0.0673057 0.0146 0.575516 -0.129353 0
0.159022 0.0674695 0 0.558932 -0.142714 0
0.159022 0.0674695 0.0146 0.558932 -0.142714 0
0.177739 0.0672471 0 0.605575 -0.0882745 0
0.171391 0.0672504 0.00729981 0.597606 -0.130669 0
0.177739 0.0672471 0.00742038 0.605575 -0.0882745 0
0.177739 0.0672471 0.0146 0.605575 -0.0882745 0
0.171525 0.0672759 0 0.590518 -0.105957 0
0.171525 0.0672759 0.0146 0.590518 -0.105957 0
0.190435 0.067564 0 0.607827 -0.0346367 0
0.184095 0.0674868 0.00730318 0.630161 -0.0896537 0
0.190435 0.067564 0.00778297 0.607827 -0.0346367 0
0.190435 0.067564 0.0146 0.607827 -0.0346367 0
0.184354 0.0674098 0 0.596601 -0.0566745 0
0.184354 0.0674098 0.0146 0.596601 -0.0566745 0
0.20313 0.0685494 0 0.608935 0.0248944 0
0.196877 0.0684203 0.00733633 0.643648 -0.0342143 0
0.20313 0.0685494 0.00891026 0.608935 0.0248944 0
0.20313 0.0685494 0.0146 0.608935 0.0248944 0
0.197787 0.0681516 0 0.605336 0.00145297 0
0.197787 0.0681516 0.0146 0.605336 0.00145297 0
0.215826 0.070503 0 0.621375 0.0871931 0
0.213183 0.0708657 0.0115602 0.634929 0.0582918 0
0.213183 0.0708657 0.00303983 0.634929 0.0582918 0
0.215826 0.070503 0.0111453 0.621375 0.0871931 0
0.215826 0.070503 0.0146 0.621375 0.0871931 0
0.206609 0.070026 0.0073 0.628185 0.0209571 0
0.212358 0.0700368 0 0.623092 0.0702167 0
0.212358 0.0700368 0.0146 0.623092 0.0702167 0
0.21753 0.07181 0.0126404 0.624817 0.0871101 0
0.21753 0.07181 0.00195956 0.624817 0.0871101 0
0.227435 0.0735228 0.0146 0.612244 0.146458 0
0.227435 0.0735228 0.0133508 0.612244 0.146458 0
0.227435 0.0735228 0 0.612244 0.146458 0
0.228522 0.0738259 0 0.610003 0.152902 0
0.228522 0.0738259 0.000346724 0.610003 0.152902 0
0.228371 0.0736742 0.000173146 0.611209 0.152096 0
0.228371 0.0736742 0.0144269 0.611209 0.152096 0
0.228522 0.0738259 0.0146 0.610003 0.152902 0
0.241217 0.0776148 0 0.568798 0.224427 0
0.241217 0.0776148 0.00468137 0.568798 0.224427 0
0.239088 0.0756632 0.00244869 0.597304 0.211166 0
0.239088 0.0756632 0.0121513 0.597304 0.211166 0
0.241217 0.0776148 0.0146 0.568798 0.224427 0
0.228912 0.0739154 0 0.608211 0.154882 0
0.22873 0.0737323 0.000239643 0.610917 0.153732 0
0.22873 0.0737323 0.0143604 0.610917 0.153732 0
0.228912 0.0739154 0.0146 0.608211 0.154882 0
0.253913 0.0824763 0 0.552352 0.269702 0
0.253913 0.0824763 0.010243 0.552352 0.269702 0
0.247285 0.0789823 0.00719256 0.588694 0.25348 0
0.253913 0.0824763 0.0146 0.552352 0.269702 0
0.247945 0.0802857 0 0.564441 0.242837 0
0.247945 0.0802857 0.0146 0.564441 0.242837 0
0.255699 0.0844894 0.0125461 0.550916 0.276116 0
0.255699 0.0844894 0.0020539 0.550916 0.276116 0
0.26216 0.0862847 0.0146 0.571196 0.283722 0
0.26216 0.0862847 0.00948377 0.571196 0.283722 0
0.26216 0.0862847 0 0.571196 0.283722 0
0.266609 0.0883676 0 0.584088 0.277635 0
0.266609 0.0883676 0.00238287 0.584088 0.277635 0
0.26558 0.0873188 0.00118302 0.584225 0.287199 0
0.26558 0.0873188 0.013417 0.584225 0.287199 0
0.266609 0.0883676 0.0146 0.584088 0.277635 0
0.279304 0.0929377 0 0.604002 0.27814 0
0.279304 0.0929377 0.00761115 0.604002 0.27814 0
0.275441 0.0901683 0.0073 0.616153 0.29453 0
0.279304 0.0929377 0.0146 0.604002 0.27814 0
0.269722 0.0894146 0 0.5848 0.281825 0
0.268621 0.0883071 0.00231362 0.592952 0.29001 0
0.268621 0.0883071 0.0122864 0.592952 0.29001 0
0.269722 0.0894146 0.0146 0.5848 0.281825 0
0.282885 0.0954477 0.0073 0.621158 0.274049 0
0.290935 0.0979759 0.013375 0.657446 0.246567 0
0.290935 0.0979759 0.00122496 0.657446 0.246567 0
0.292 0.0980183 0 0.659828 0.242273 0
0.292 0.0980183 0.0134235 0.659828 0.242273 0
0.292 0.0980183 0.0146 0.659828 0.242273 0
0.29041 0.0974488 0 0.654816 0.246231 0
0.29041 0.0974488 0.0146 0.654816 0.246231 0
0.292219 0.0985805 0.0140666 0.659143 0.240103 0
0.292219 0.0985805 0.000533358 0.659143 0.240103 0
0.293852 0.0990467 0.0146 0.665464 0.229659 0
0.293852 0.0990467 0.00450603 0.665464 0.229659 0
0.293852 0.0990467 0 0.665464 0.229659 0
0.298 0.101168 0 0.706261 0.194297 0
0.298 0.101168 0.00242673 0.706261 0.194297 0
0.297448 0.100221 0.00134343 0.678774 0.206328 0
0.297448 0.100221 0.0132566 0.678774 0.206328 0
0.298 0.101168 0.0146 0.706261 0.194297 0
0.304 0.102643 0 0.739723 0.160546 0
0.304 0.102643 0.0041146 0.739723 0.160546 0
0.302981 0.101213 0.00247814 0.69898 0.172082 0
0.302981 0.101213 0.0121219 0.69898 0.172082 0
0.304 0.102643 0.0146 0.739723 0.160546 0
0.29911 0.101408 0 0.708356 0.192655 0
0.298687 0.100509 0.00167294 0.682551 0.198702 0
0.298687 0.100509 0.0129271 0.682551 0.198702 0
0.29911 0.101408 0.0146 0.708356 0.192655 0
0.31 0.103974 0 0.753181 0.123911 0
0.31 0.103974 0.00563697 0.753181 0.123911 0
0.30837 0.102513 0.0073 0.712508 0.13882 0
0.31 0.103974 0.0146 0.753181 0.123911 0
0.305889 0.103064 0 0.734662 0.150459 0
0.305394 0.102013 0.0033939 0.70391 0.157402 0
0.305394 0.102013 0.0112061 0.70391 0.157402 0
0.305889 0.103064 0.0146 0.734662 0.150459 0
0.315999 0.105854 0 0.766081 0.0543028 0
0.315999 0.105854 0.00778763 0.766081 0.0543028 0
0.312915 0.103974 0.00723179 0.720498 0.111393 0
0.315999 0.105854 0.0146 0.766081 0.0543028 0
0.312721 0.104835 0 0.749106 0.0891554 0
0.312721 0.104835 0.0146 0.749106 0.0891554 0
0.330105 0.0562673 0 0.429578 0.0104762 0
0.324943 0.0526696 0.0073 0.273733 0.0945158 0
0.330105 0.0562673 0.00945927 0.429578 0.0104762 0
0.330105 0.0562673 0.0146 0.429578 0.0104762 0
0.332272 0.0588005 0.0123573 0.498142 -0.0146687 0
0.340984 0.0607609 0.0146 0.568083 -0.0658648 0
0.332272 0.0588005 0.00224274 0.498142 -0.0146687 0
0.340984 0.0607609 0.011261 0.568083 -0.0658648 0
0.340984 0.0607609 0 0.568083 -0.0658648 0
0.34421 0.0621927 0 0.597553 -0.086234 0
0.343533 0.0613738 0.000701151 0.591585 -0.0826459 0
0.34421 0.0621927 0.00163803 0.597553 -0.086234 0
0.343533 0.0613738 0.0138988 0.591585 -0.0826459 0
0.34421 0.0621927 0.0146 0.597553 -0.086234 0
0.358315 0.0680009 0 0.638386 -0.167189 0
0.354024 0.0646436 0.0073 0.612933 -0.143523 0
0.358315 0.0680009 0.00828278 0.638386 -0.167189 0
0.358315 0.0680009 0.0146 0.638386 -0.167189 0
0.345806 0.0622051 0.0016522 0.60187 -0.0897402 0
0.347002 0.063287 0 0.610345 -0.096024 0
0.345806 0.0622051 0.0129478 0.60187 -0.0897402 0
0.347002 0.063287 0.0146 0.610345 -0.096024 0
0.361149 0.0709591 0.011667 0.7197 -0.14257 0
0.369187 0.0735228 0.0146 0.697797 -0.161146 0
0.361149 0.0709591 0.00293297 0.7197 -0.14257 0
0.369187 0.0735228 0.0112528 0.697797 -0.161146 0
0.369187 0.0735228 0 0.697797 -0.161146 0
0.372421 0.0753262 0 0.70254 -0.172952 0
0.37162 0.0742472 0.000828741 0.696576 -0.168638 0
0.372421 0.0753262 0.00206309 0.70254 -0.172952 0
0.37162 0.0742472 0.0137713 0.696576 -0.168638 0
0.372421 0.0753262 0.0146 0.70254 -0.172952 0
0.386526 0.0839626 0 0.727575 -0.258147 0
0.380457 0.0790141 0.00628217 0.743206 -0.217195 0
0.386526 0.0839626 0.0119433 0.727575 -0.258147 0
0.380457 0.0790141 0.00831783 0.743206 -0.217195 0
0.386526 0.0839626 0.0146 0.727575 -0.258147 0
0.376169 0.0769143 0.0038799 0.734606 -0.182078 0
0.378802 0.0792969 0 0.72451 -0.198802 0
0.376169 0.0769143 0.0107201 0.734606 -0.182078 0
0.378802 0.0792969 0.0146 0.72451 -0.198802 0
0.387547 0.0853612 0.0135434 0.755885 -0.239007 0
0.389364 0.0862847 0.0146 0.733525 -0.276625 0
0.387547 0.0853612 0.00105656 0.755885 -0.239007 0
0.389364 0.0862847 0.00293749 0.733525 -0.276625 0
0.389364 0.0862847 0 0.733525 -0.276625 0
0.400631 0.0964963 0 0.731282 -0.350953 0
0.396451 0.0900666 0.0073 0.722364 -0.32977 0
0.400631 0.0964963 0.0116823 0.731282 -0.350953 0
0.400631 0.0964963 0.0146 0.731282 -0.350953 0
0.401597 0.0981727 0.0136002 0.738543 -0.356849 0
0.403165 0.0990467 0.0146 0.729675 -0.384297 0
0.401597 0.0981727 0.000999812 0.738543 -0.356849 0
0.403165 0.0990467 0.00262265 0.729675 -0.384297 0
0.403165 0.0990467 0 0.729675 -0.384297 0
0.330105 0.109206 0 0.784662 -0.0444893 0
0.32722 0.109198 0.0116138 0.775129 -0.0133443 0
0.32722 0.109198 0.00298617 0.775129 -0.0133443 0
0.330105 0.109206 0.0116224 0.784662 -0.0444893 0
0.330105 0.109206 0.0146 0.784662 -0.0444893 0
0.320325 0.107895 0.0073 0.769274 0.0407251 0
0.326208 0.108283 0 0.774554 -0.0174539 0
0.326208 0.108283 0.0146 0.774554 -0.0174539 0
0.331434 0.110606 0.0132244 0.787629 -0.0475279 0
0.331434 0.110606 0.00137561 0.787629 -0.0475279 0
0.342871 0.111809 0.0146 0.816949 -0.079491 0
0.342871 0.111809 0.013214 0.816949 -0.079491 0
0.342871 0.111809 0 0.816949 -0.079491 0
0.412597 0.109873 0.00221462 0.747642 -0.440342 0
0.408995 0.104242 0.0073 0.799934 -0.334216 0
0.412597 0.109873 0.0123854 0.747642 -0.440342 0
0.413585 0.111809 0.0146 0.713634 -0.495837 0
0.413585 0.111809 0.0134079 0.713634 -0.495837 0
0.413585 0.111809 0 0.713634 -0.495837 0
0.410332 0.107824 0 0.721566 -0.458053 0
0.410332 0.107824 0.0146 0.721566 -0.458053 0
0.34421 0.112091 0 0.821417 -0.0826909 0
0.34421 0.112091 0.00032278 0.821417 -0.0826909 0
0.344062 0.111943 0.000153385 0.819154 -0.0833539 0
0.344062 0.111943 0.0144466 0.819154 -0.0833539 0
0.34421 0.112091 0.0146 0.821417 -0.0826909 0
0.358315 0.11683 0 0.84236 -0.118989 0
0.358315 0.11683 0.00574505 0.84236 -0.118989 0
0.355945 0.113953 0.00245328 0.869083 -0.100898 0
0.355945 0.113953 0.0121467 0.869083 -0.100898 0
0.358315 0.11683 0.0146 0.84236 -0.118989 0
0.344691 0.112244 0 0.81984 -0.0839613 0
0.344399 0.11198 0.000195609 0.821801 -0.0822544 0
0.344399 0.11198 0.0144044 0.821801 -0.0822544 0
0.344691 0.112244 0.0146 0.81984 -0.0839613 0
0.372421 0.124251 0 0.879417 -0.134885 0
0.372024 0.124212 0.0141893 0.880316 -0.133109 0
0.372024 0.124212 0.000410677 0.880316 -0.133109 0
0.372421 0.124251 0.0142339 0.879417 -0.134885 0
0.372421 0.124251 0.0146 0.879417 -0.134885 0
0.362724 0.120582 0.0073 0.859491 -0.120507 0
0.371684 0.123904 0 0.87893 -0.133032 0
0.371684 0.123904 0.0146 0.87893 -0.133032 0
0.372571 0.124435 0.0144445 0.879702 -0.134995 0
0.372571 0.124435 0.000155538 0.879702 -0.134995 0
0.372897 0.124571 0.0146 0.880472 -0.135279 0
0.372897 0.124571 0.000493162 0.880472 -0.135279 0
0.372897 0.124571 0 0.880472 -0.135279 0
0.414737 0.113284 0 0.721355 -0.487423 0
0.414267 0.112233 0.000485778 0.711374 -0.500821 0
0.414737 0.113284 0.00168772 0.721355 -0.487423 0
0.414267 0.112233 0.0141142 0.711374 -0.500821 0
0.414737 0.113284 0.0146 0.721355 -0.487423 0
0.418689 0.120995 0.0073 0.88712 -0.258915 0
0.422526 0.124571 0.0146 0.715852 -0.237699 0
0.422526 0.124571 0.00806261 0.715852 -0.237699 0
0.422526 0.124571 0 0.715852 -0.237699 0
0.386526 0.134572 0 0.951528 -0.171867 0
0.386526 0.134572 0.0114417 0.951528 -0.171867 0
0.382401 0.128302 0.0073 0.942678 -0.127567 0
0.386526 0.134572 0.0146 0.951528 -0.171867 0
0.387633 0.13633 0.0134537 0.953516 -0.174627 0
0.387633 0.13633 0.00114632 0.953516 -0.174627 0
0.38932 0.137332 0.0146 0.951927 -0.175219 0
0.38932 0.137332 0.00289207 0.951927 -0.175219 0
0.38932 0.137332 0 0.951927 -0.175219 0
0.428842 0.137209 0 0.887678 -0.2386 0
0.425814 0.12731 0.00313432 0.711806 -0.239446 0
0.428842 0.137209 0.0144588 0.887678 -0.2386 0
0.425814 0.12731 0.0114657 0.711806 -0.239446 0
0.428842 0.137209 0.0146 0.887678 -0.2386 0
0.428875 0.137302 0.0145654 0.890617 -0.2388 0
0.42891 0.137332 0.0146 0.890143 -0.237651 0
0.428875 0.137302 3.45953e-05 0.890617 -0.2388 0
0.42891 0.137332 7.09884e-05 0.890143 -0.237651 0
0.42891 0.137332 0 0.890143 -0.237651 0
0.396404 0.14627 0.00437552 0.942665 -0.132243 0
0.396404 0.14627 0.0102245 0.942665 -0.132243 0
0.394884 0.142532 0.00594881 0.944137 -0.134365 0
0.394884 0.142532 0.00865119 0.944137 -0.134365 0
0.397194 0.150094 0.0146 0.949702 -0.145776 0
0.397194 0.150094 0.0110427 0.949702 -0.145776 0
0.397194 0.150094 0 0.949702 -0.145776 0
0.392463 0.142704 0 0.948216 -0.161636 0
0.392463 0.142704 0.0146 0.948216 -0.161636 0
0.430299 0.148776 0.0130915 0.904025 -0.216754 0
0.431083 0.150094 0.0146 0.89921 -0.187045 0
0.430299 0.148776 0.00150855 0.904025 -0.216754 0
0.431083 0.150094 0.00232008 0.89921 -0.187045 0
0.431083 0.150094 0 0.89921 -0.187045 0
0.428893 0.137379 5.34925e-05 0.890879 -0.238461 0
0.428917 0.1374 0 0.890691 -0.237509 0
0.428917 0.1374 0.0146 0.890691 -0.237509 0
0.428893 0.137379 0.0145465 0.890879 -0.238461 0
0.400593 0.162822 3.9079e-05 0.933288 -0.101824 0
0.400593 0.162822 0.0145609 0.933288 -0.101824 0
0.398954 0.151612 0.00173608 0.938875 -0.128463 0
0.398954 0.151612 0.0128639 0.938875 -0.128463 0
0.400568 0.162856 0.0146 0.933525 -0.101695 0
0.400568 0.162856 0.0145341 0.933525 -0.101695 0
0.400568 0.162856 0 0.933525 -0.101695 0
0.400553 0.162786 0 0.933535 -0.102222 0
0.400553 0.162786 0.0146 0.933535 -0.102222 0
0.428959 0.16275 0.0144788 0.911806 -0.191009 0
0.429006 0.162856 0.0146 0.912898 -0.188428 0
0.428959 0.16275 0.000121196 0.911806 -0.191009 0
0.429006 0.162856 0.00016971 0.912898 -0.188428 0
0.429006 0.162856 0 0.912898 -0.188428 0
0.430275 0.151391 0.00148299 0.904423 -0.217337 0
0.430969 0.152019 0 0.918104 -0.185586 0
0.430969 0.152019 0.0146 0.918104 -0.185586 0
0.430275 0.151391 0.013117 0.904423 -0.217337 0
0.400631 0.163106 0 0.933012 -0.101048 0
0.400631 0.163106 0.00028531 0.933012 -0.101048 0
0.400596 0.162888 3.61704e-05 0.933234 -0.101568 0
0.400596 0.162888 0.0145638 0.933234 -0.101568 0
0.400631 0.163106 0.0146 0.933012 -0.101048 0
0.402159 0.174236 0.0130186 0.922974 -0.0711572 0
0.402159 0.174236 0.0015814 0.922974 -0.0711572 0
0.408299 0.175618 0.0146 0.924177 -0.104417 0
0.408299 0.175618 0.00793659 0.924177 -0.104417 0
0.408299 0.175618 0 0.924177 -0.104417 0
0.428842 0.163137 0 0.911204 -0.192163 0
0.425701 0.172776 0.0113487 0.894868 -0.218531 0
0.425701 0.172776 0.0032513 0.894868 -0.218531 0
0.428842 0.163137 0.000321401 0.911204 -0.192163 0
0.428842 0.163137 0.0146 0.911204 -0.192163 0
0.418677 0.175618 0.0146 0.911725 -0.177081 0
0.418677 0.175618 0.00407857 0.911725 -0.177081 0
0.418677 0.175618 0 0.911725 -0.177081 0
0.423609 0.170884 0 0.892436 -0.227633 0
0.423609 0.170884 0.0146 0.892436 -0.227633 0
0.428988 0.162989 0 0.912034 -0.189804 0
0.428931 0.162937 9.19625e-05 0.912068 -0.190254 0
0.428988 0.162989 0.0146 0.912034 -0.189804 0
0.428931 0.162937 0.014508 0.912068 -0.190254 0
0.414737 0.178623 0 0.921843 -0.13741 0
0.414737 0.178623 0.00343708 0.921843 -0.13741 0
0.409766 0.180115 0.0073 0.925873 -0.109084 0
0.414737 0.178623 0.0146 0.921843 -0.13741 0
0.417577 0.178188 0 0.907623 -0.164057 0
0.416456 0.177174 0.00178029 0.927457 -0.156753 0
0.417577 0.178188 0.0146 0.907623 -0.164057 0
0.416456 0.177174 0.0128197 0.927457 -0.156753 0
0.428842 0.204482 0 0.849268 -0.0421867 0
0.423519 0.209088 0.0073 0.867785 0.0323404 0
0.428842 0.204482 0.0038209 0.849268 -0.0421867 0
0.428842 0.204482 0.0146 0.849268 -0.0421867 0
0.420557 0.213904 0.0146 0.859174 -0.00898869 0
0.420557 0.213904 0.00602453 0.859174 -0.00898869 0
0.420557 0.213904 0 0.859174 -0.00898869 0
0.423018 0.208635 0 0.864249 -0.0357091 0
0.423018 0.208635 0.0146 0.864249 -0.0357091 0
0.442947 0.205422 0 0.79723 -0.10986 0
0.440879 0.203013 0.00214036 0.797679 -0.103554 0
0.442947 0.205422 0.00489621 0.79723 -0.10986 0
0.440879 0.203013 0.0124596 0.797679 -0.103554 0
0.442947 0.205422 0.0146 0.79723 -0.10986 0
0.430341 0.202499 0.00155192 0.846549 -0.0474169 0
0.432329 0.204297 0 0.84407 -0.0545333 0
0.430341 0.202499 0.0130481 0.846549 -0.0474169 0
0.432329 0.204297 0.0146 0.84407 -0.0545333 0
0.448027 0.209308 0.0073 0.809793 -0.0708808 0
0.452692 0.213904 0.0146 0.788629 -0.0828382 0
0.452692 0.213904 0.0100864 0.788629 -0.0828382 0
0.452692 0.213904 0 0.788629 -0.0828382 0
0.414737 0.222658 0 0.841348 0.0375447 0
0.41362 0.225656 0.00115592 0.835863 0.0665746 0
0.41362 0.225656 0.0134441 0.835863 0.0665746 0
0.414737 0.222658 0.0100149 0.841348 0.0375447 0
0.414737 0.222658 0.0146 0.841348 0.0375447 0
0.412187 0.226666 0.0146 0.84473 0.0623377 0
0.412187 0.226666 0.0119606 0.84473 0.0623377 0
0.412187 0.226666 0 0.84473 0.0623377 0
0.412755 0.224873 0 0.855564 0.0484049 0
0.412755 0.224873 0.0146 0.855564 0.0484049 0
0.417237 0.216167 0.00258852 0.859502 -0.0063807 0
0.419002 0.217763 0 0.856158 -0.011759 0
0.417237 0.216167 0.0120115 0.859502 -0.0063807 0
0.419002 0.217763 0.0146 0.856158 -0.011759 0
0.456542 0.226205 0.000527912 0.882763 -0.0578416 0
0.455485 0.215322 0.00162216 0.785036 -0.0889001 0
0.456542 0.226205 0.0140721 0.882763 -0.0578416 0
0.455485 0.215322 0.0129778 0.785036 -0.0889001 0
0.455888 0.226666 0.0146 0.883479 -0.0572319 0
0.455888 0.226666 0.0133951 0.883479 -0.0572319 0
0.455888 0.226666 0 0.883479 -0.0572319 0
0.455518 0.225277 0 0.880183 -0.0569298 0
0.455518 0.225277 0.0146 0.880183 -0.0569298 0
0.409587 0.234769 0.00532979 0.797365 0.0886005 0
0.409587 0.234769 0.00927021 0.797365 0.0886005 0
0.407935 0.23282 0.00704007 0.800164 0.106519 0
0.407935 0.23282 0.00755993 0.800164 0.106519 0
0.414353 0.239428 0.0146 0.791493 0.0370253 0
0.414353 0.239428 0.014203 0.791493 0.0370253 0
0.414353 0.239428 0 0.791493 0.0370253 0
0.414432 0.239153 0 0.795332 0.0362899 0
0.414432 0.239153 0.0146 0.795332 0.0362899 0
0.442947 0.23709 0 0.884469 -0.120466 0
0.441828 0.238415 0.0134418 0.883875 -0.118394 0
0.441828 0.238415 0.00115825 0.883875 -0.118394 0
0.442947 0.23709 0.0119259 0.884469 -0.120466 0
0.442947 0.23709 0.0146 0.884469 -0.120466 0
0.434656 0.239428 0.0146 0.862252 -0.082097 0
0.434656 0.239428 0.00601781 0.862252 -0.082097 0
0.434656 0.239428 0 0.862252 -0.082097 0
0.44057 0.237277 0 0.882316 -0.114547 0
0.44057 0.237277 0.0146 0.882316 -0.114547 0
0.45247 0.235282 0.0073 0.841612 -0.0354578 0
0.455927 0.227684 0.00116436 0.886334 -0.0604018 0
0.455927 0.227684 0.0134356 0.886334 -0.0604018 0
0.445212 0.237379 0.0122557 0.890049 -0.116167 0
0.445212 0.237379 0.00234427 0.890049 -0.116167 0
0.450453 0.233457 0 0.802215 -0.00453939 0
0.450453 0.233457 0.0146 0.802215 -0.00453939 0
0.414737 0.239709 0 0.788202 0.0326311 0
0.414737 0.239709 0.000322024 0.788202 0.0326311 0
0.414441 0.239695 0.00030556 0.790663 0.0362036 0
0.414441 0.239695 0.0142944 0.790663 0.0362036 0
0.414737 0.239709 0.0146 0.788202 0.0326311 0
0.428842 0.240979 0 0.802196 -0.0543561 0
0.428842 0.240979 0.00177481 0.802196 -0.0543561 0
0.427343 0.240784 0.00155134 0.837359 -0.0451392 0
0.427343 0.240784 0.0130487 0.837359 -0.0451392 0
0.428842 0.240979 0.0146 0.802196 -0.0543561 0
0.415004 0.23967 0 0.787615 0.0324765 0
0.414992 0.239659 0.000264766 0.793874 0.0325152 0
0.414992 0.239659 0.0143352 0.793874 0.0325152 0
0.415004 0.23967 0.0146 0.787615 0.0324765 0
0.430322 0.240767 0 0.791563 -0.0444608 0
0.429685 0.240191 0.0008728 0.84773 -0.0551582 0
0.430322 0.240767 0.0146 0.791563 -0.0444608 0
0.429685 0.240191 0.0137272 0.84773 -0.0551582 0
