# Probe 0 (0.29 0.5 0.0073)
# Time        0            
0.00119048    99994.9      
0.00262605    99954        
0.00431798    99888.5      
0.00630415    99855.6      
0.0087317     99838.6      
0.0116794     99823.1      
0.0151631     99806.7      
0.0190339     99783.6      
0.0234576     99745        
0.0278813     99703.6      
0.0315678     99677.3      
0.0352542     99652.2      
0.0382034     99634.5      
0.0411525     99614.4      
0.0441017     99596.9      
0.0470508     99581.7      
0.05          99567.3      
0.0525        99551.4      
0.055         99538.4      
0.0573684     99527.7      
0.0597368     99515        
0.0619737     99502.6      
0.0642105     99492.1      
0.0663158     99482.4      
0.0684211     99471.8      
0.0705263     99461.2      
0.0724912     99452.5      
0.0744561     99443.2      
0.0764211     99433.4      
0.078386      99424.5      
0.0801871     99416.6      
0.0819883     99408.5      
0.0837895     99399.9      
0.0855906     99391.9      
0.0873918     99384        
0.089193      99376        
0.0909942     99367.5      
0.0927953     99359.4      
0.0945965     99351.7      
0.0963977     99343.1      
0.0981988     99335        
0.1           99327.4      
0.101471      99320.9      
0.102898      99315.1      
0.104283      99309.7      
0.105628      99304        
0.106933      99298.7      
0.1082        99293.7      
0.109429      99288.8      
0.110622      99283.9      
0.11178       99279.3      
0.112905      99275.2      
0.113996      99270.9      
0.115055      99266.6      
0.116082      99262.7      
0.11708       99258.8      
0.118048      99255.1      
0.118988      99251.3      
0.1199        99247.7      
0.120785      99244.3      
0.121645      99240.9      
0.122432      99237.7      
0.123158      99234.7      
0.123754      99232.3      
0.124279      99230.3      
0.124764      99228.5      
0.125215      99227.1      
0.125642      99225.7      
0.126048      99224.4      
0.126441      99223.1      
0.126827      99221.8      
0.127207      99220.6      
0.127581      99219.6      
0.127954      99218.6      
0.128322      99217.6      
0.128689      99216.4      
0.129063      99215.3      
0.129437      99214.1      
0.129825      99212.8      
0.130213      99211.5      
0.130609      99210.2      
0.131013      99209        
0.131417      99207.9      
0.131821      99206.8      
0.132234      99205.8      
0.132647      99204.6      
0.13306       99203.4      
0.133473      99202.1      
0.133887      99200.7      
0.1343        99199.3      
0.134713      99197.9      
0.135137      99196.6      
0.135562      99195.4      
0.136         99194.2      
0.136451      99193        
0.136918      99191.6      
0.137386      99190        
0.137853      99188.4      
0.138339      99186.6      
0.138846      99184.5      
0.139353      99182.2      
0.13986       99179.9      
0.140393      99177.9      
0.140927      99175.9      
0.141461      99173.7      
0.141995      99171        
0.142528      99168.1      
0.143062      99165.2      
0.143596      99162.5      
0.144129      99160.1      
0.144663      99157.8      
0.145197      99155.3      
0.14573       99152.5      
0.146264      99149.5      
0.146798      99146.6      
0.147332      99143.8      
0.147865      99141.1      
0.148399      99138.5      
0.148933      99135.9      
0.149466      99133.1      
0.15          99130        
0.150595      99126.4      
0.151198      99122.8      
0.151808      99119.3      
0.152434      99116        
0.153068      99112.7      
0.153711      99109.4      
0.154363      99105.9      
0.155024      99102.4      
0.155695      99098.5      
0.156377      99094.1      
0.157069      99089.8      
0.157773      99086.1      
0.158477      99082.8      
0.159193      99079.1      
0.159922      99074.3      
0.16065       99069.3      
0.161393      99065.1      
0.162135      99061.3      
0.162893      99056.6      
0.16365       99051.4      
0.164423      99046.6      
0.165197      99042.1      
0.16597       99036.9      
0.166743      99031.8      
0.167517      99026.8      
0.168272      99021.9      
0.169028      99017        
0.169783      99012.2      
0.170539      99007.3      
0.171275      99002.4      
0.172012      98997.1      
0.172748      98991.6      
0.173485      98986.2      
0.174221      98980.7      
0.174958      98975.1      
0.175694      98969.8      
0.176431      98964.9      
0.177167      98960.1      
0.177904      98955        
0.17864       98949.2      
0.179377      98942.4      
0.180114      98935.3      
0.18085       98929.1      
0.181587      98923.3      
0.182323      98916.5      
0.18306       98909.1      
0.183796      98902        
0.184533      98895.8      
0.185236      98889.6      
0.185939      98882.2      
0.186642      98874.7      
0.18731       98868.7      
0.187978      98863.6      
0.188646      98858.2      
0.189276      98851.8      
0.189907      98845        
0.190501      98838.8      
0.191095      98833        
0.191688      98827.5      
0.192282      98821.8      
0.192876      98815.5      
0.193469      98808.8      
0.194014      98802.9      
0.194558      98797.5      
0.195102      98792        
0.195646      98785.7      
0.19619       98778.7      
0.196735      98771.8      
0.197279      98766        
0.197823      98760.8      
0.198367      98755.6      
0.198912      98749.8      
0.199456      98742.8      
0.2           98735.7      
0.200495      98729.9      
0.20099       98724.6      
0.20148       98719.3      
0.20197       98713.7      
0.202451      98707.4      
0.202926      98700.8      
0.203402      98694.8      
0.203858      98689.3      
0.204325      98683.9      
0.204777      98679.4      
0.205216      98674.8      
0.205673      98669        
0.20613       98663.5      
0.206577      98658.5      
0.20703       98653.2      
0.207477      98648.3      
0.207911      98643.7      
0.208345      98638.2      
0.208788      98631.8      
0.209213      98625.6      
0.209629      98619.5      
0.210054      98613.3      
0.210488      98607.9      
0.2109        98603.3      
0.21132       98597.6      
0.21176       98591.2      
0.212176      98585.8      
0.212582      98580.6      
0.213008      98574.9      
0.213423      98570.1      
0.213825      98566.2      
0.214223      98561.5      
0.214629      98555.6      
0.215036      98550        
0.215433      98544.9      
0.215826      98539.4      
0.216219      98534.3      
0.216616      98529.7      
0.217014      98524.4      
0.217411      98518.4      
0.217808      98512.4      
0.218211      98506.6      
0.218613      98500.4      
0.219021      98494.2      
0.219423      98489.3      
0.219826      98485        
0.220228      98480.2      
0.22063       98474.2      
0.221038      98468.3      
0.221435      98463        
0.221837      98457.2      
0.222239      98451.4      
0.222642      98446.3      
0.223038      98441.6      
0.223435      98436        
0.223844      98429.7      
0.224246      98423.9      
0.224648      98418.3      
0.225051      98412.1      
0.225467      98405.9      
0.225869      98400.9      
0.226271      98395.4      
0.22668       98388.5      
0.227096      98381.6      
0.227505      98375.9      
0.227914      98370.4      
0.228331      98363.8      
0.228756      98357.1      
0.229173      98351.4      
0.229581      98345.5      
0.229989      98339        
0.230406      98331.9      
0.230832      98325.5      
0.231249      98319.8      
0.231666      98314.1      
0.232082      98307.5      
0.232509      98300.6      
0.232935      98293.3      
0.233362      98286.3      
0.233789      98280.2      
0.234215      98273.6      
0.234654      98266.4      
0.235092      98259.8      
0.235531      98252.8      
0.235969      98244.2      
0.236408      98235.5      
0.236846      98228.8      
0.237285      98222.5      
0.237723      98214.1      
0.238178      98204.9      
0.238632      98197.5      
0.23907       98190.7      
0.239507      98182.4      
0.239944      98173.5      
0.240401      98166.5      
0.240837      98160.4      
0.241274      98152        
0.24171       98142.7      
0.242146      98135.7      
0.242583      98129.5      
0.243019      98122        
0.243455      98114.1      
0.243892      98106.7      
0.244328      98098.7      
0.244764      98090        
0.245201      98082.7      
0.245637      98076        
0.246073      98068.6      
0.24651       98060.8      
0.246946      98053.1      
0.247382      98044.6      
0.247818      98035.4      
0.248255      98027.5      
0.248691      98021.1      
0.249127      98013.5      
0.249564      98003.8      
0.25          97994.4      
0.25045       97987.1      
0.250901      97980        
0.251351      97970.5      
0.251806      97961        
0.252265      97953.8      
0.25272       97946.5      
0.253174      97937.4      
0.253633      97927.8      
0.254102      97920.1      
0.254565      97913.4      
0.255029      97904.4      
0.255493      97894.2      
0.255956      97885.9      
0.25642       97878.3      
0.256879      97869.7      
0.257337      97861.5      
0.257796      97853.1      
0.258255      97845.3      
0.258708      97836.6      
0.259167      97828.1      
0.259621      97819.2      
0.260075      97811.1      
0.260523      97803.4      
0.260972      97796        
0.26142       97786.7      
0.261874      97776.9      
0.262323      97768.4      
0.262771      97762.1      
0.263215      97755.1      
0.263658      97744.6      
0.264106      97734.5      
0.26455       97726.1      
0.264993      97719.2      
0.26543       97711.2      
0.265874      97701.6      
0.266317      97692.2      
0.26676       97684.3      
0.267203      97676.4      
0.26764       97667.8      
0.268084      97658.6      
0.268527      97650.5      
0.268977      97643.5      
0.26942       97634.9      
0.269863      97624.7      
0.270313      97614.4      
0.27077       97606.7      
0.271219      97599.9      
0.271669      97592.3      
0.272119      97582.7      
0.272568      97572.2      
0.273026      97564.2      
0.273475      97557.7      
0.273925      97549.9      
0.274374      97542        
0.274824      97530.9      
0.275273      97522        
0.275715      97515.9      
0.276156      97507.8      
0.276598      97500.4      
0.277031      97491.1      
0.277473      97482.2      
0.277915      97475.6      
0.278348      97467.3      
0.278772      97459.7      
0.279197      97450.6      
0.279613      97442.7      
0.280029      97437.2      
0.280445      97429.2      
0.280861      97421        
0.281277      97412.7      
0.281693      97404.7      
0.2821        97398.4      
0.282507      97391.5      
0.282914      97384.6      
0.283321      97376.9      
0.283727      97367.2      
0.284134      97359.5      
0.284541      97352.2      
0.284948      97346.5      
0.285355      97340.8      
0.285761      97333.3      
0.286157      97323.3      
0.286552      97314.7      
0.286948      97305.6      
0.287356      97299.8      
0.287751      97294.9      
0.288146      97287.5      
0.288541      97277.8      
0.288951      97268.7      
0.28936       97260.5      
0.289769      97254        
0.290178      97247.6      
0.290571      97240        
0.290964      97231.7      
0.291357      97222.9      
0.29175       97216.2      
0.292143      97210.1      
0.292556      97202.4      
0.29297       97194.4      
0.293383      97186.2      
0.293797      97176.5      
0.29421       97169.8      
0.294624      97162.8      
0.295037      97154.5      
0.295451      97146.8      
0.295865      97138.8      
0.296278      97127.5      
0.296692      97121.8      
0.297105      97116.1      
0.297519      97108.3      
0.297932      97100.3      
0.298346      97092.6      
0.298759      97082.2      
0.299173      97076.5      
0.299586      97070.7      
0.3           97062.9      
0.300403      97054.7      
0.300806      97046.9      
0.30121       97037.5      
0.301616      97031.1      
0.302019      97026.1      
0.302419      97019.2      
0.302819      97009.8      
0.303219      97000.8      
0.303619      96991.8      
0.304019      96985.2      
0.304418      96979.8      
0.304815      96973.9      
0.305208      96966.3      
0.305601      96958.1      
0.305994      96948.8      
0.306387      96941.1      
0.306779      96934.4      
0.307172      96929        
0.307562      96922.6      
0.307947      96915.4      
0.308333      96907.7      
0.308719      96898.6      
0.309105      96890.3      
0.309491      96884        
0.309873      96877.8      
0.310251      96871.4      
0.31063       96865.5      
0.311009      96858.6      
0.311387      96848.4      
0.311766      96840        
0.31214       96834        
0.312515      96828.2      
0.312886      96822.9      
0.313258      96816.8      
0.313629      96809.4      
0.314         96799        
0.314371      96790.4      
0.314738      96784.4      
0.315106      96778.9      
0.315469      96773.5      
0.315833      96767.6      
0.316196      96760.8      
0.31656       96752.7      
0.316919      96742.1      
0.317283      96735.5      
0.317642      96729.5      
0.318002      96723.5      
0.318361      96718.2      
0.318721      96711.8      
0.319076      96704.5      
0.319432      96697        
0.319787      96687.2      
0.320143      96681.2      
0.320498      96675.4      
0.320849      96668.9      
0.3212        96662.6      
0.321552      96657.2      
0.321903      96650.7      
0.322254      96643.3      
0.322601      96633.8      
0.322952      96627.3      
0.323299      96621.4      
0.323646      96614.6      
0.323992      96608.4      
0.324339      96603.1      
0.324686      96597.7      
0.325033      96590.8      
0.325375      96581.8      
0.325717      96572.2      
0.326059      96565.6      
0.326401      96560.3      
0.326743      96554.6      
0.327085      96548.5      
0.327427      96542.3      
0.327769      96535.9      
0.328111      96528.4      
0.328448      96519.5      
0.328784      96510.6      
0.329121      96504.3      
0.329458      96498.5      
0.329795      96492.5      
0.330131      96485.6      
0.330457      96478.4      
0.330778      96472.1      
0.331093      96465.5      
0.331398      96458.7      
0.331693      96449.5      
0.331979      96442.5      
0.332261      96436.9      
0.332533      96431.3      
0.332798      96425.5      
0.333055      96419.3      
0.333304      96413.3      
0.333546      96407.9      
0.333784      96403.2      
0.334016      96398.5      
0.334244      96392.5      
0.334463      96386.4      
0.334676      96380.5      
0.334886      96372.5      
0.33509       96366.1      
0.335284      96361.4      
0.33547       96356.4      
0.335652      96350.7      
0.335829      96345        
0.336004      96339.6      
0.336177      96334.9      
0.336347      96331.1      
0.336516      96327.8      
0.336682      96324.6      
0.336847      96321        
0.337009      96316.5      
0.337168      96311.7      
0.337322      96306.4      
0.337477      96300.4      
0.337618      96294.4      
0.337752      96288.5      
0.337884      96282.4      
0.338013      96275        
0.33814       96266        
0.338266      96257.2      
0.338394      96249.5      
0.338521      96242.7      
0.338648      96236.8      
0.338774      96231.9      
0.3389        96227.8      
0.339026      96224.1      
0.339152      96220.2      
0.339278      96216        
0.339404      96211.4      
0.339531      96206.3      
0.339657      96200.8      
0.339781      96195.3      
0.339906      96189.5      
0.340032      96183.6      
0.340163      96177.1      
0.340298      96169.6      
0.340437      96160.6      
0.340579      96149        
0.340724      96133.4      
0.340872      96112.6      
0.341021      96087.7      
0.341173      96060.9      
0.341328      96035.5      
0.341483      96012.8      
0.341641      95994.8      
0.341799      95983.6      
0.341956      95977.3      
0.342117      95972.9      
0.342278      95968        
0.342442      95960.8      
0.342607      95951.1      
0.342775      95938.9      
0.342943      95925.4      
0.343115      95910.5      
0.343287      95894.4      
0.343464      95876.5      
0.34364       95857.3      
0.343822      95837.5      
0.344004      95818.8      
0.344185      95802.2      
0.344373      95787.3      
0.34456       95775        
0.344748      95765.5      
0.344943      95758        
0.345137      95751.1      
0.345332      95746.3      
0.345535      95743.3      
0.345738      95740.7      
0.345941      95737.6      
0.346144      95734.1      
0.346358      95730.6      
0.346572      95728.2      
0.346786      95726.7      
0.347001      95726.2      
0.347215      95726.4      
0.347429      95727.5      
0.347663      95729.1      
0.347896      95731.2      
0.34813       95733.4      
0.348364      95736.7      
0.348598      95741.2      
0.348831      95745.9      
0.349065      95753.6      
0.349299      95764.5      
0.349533      95776.3      
0.349766      95788        
0.35          95799.9      
0.350253      95813.2      
0.350508      95826.9      
0.350765      95841.1      
0.351026      95855.5      
0.351289      95870.5      
0.351555      95886.6      
0.351825      95903.1      
0.352097      95920.4      
0.352372      95938.9      
0.352649      95956.1      
0.352929      95974.5      
0.353213      95994.4      
0.3535        96013.8      
0.353789      96032.5      
0.354081      96052        
0.354375      96072        
0.354674      96091.9      
0.354974      96110.9      
0.355278      96129.9      
0.355584      96147.1      
0.355895      96162.7      
0.356208      96177.3      
0.356523      96190.5      
0.356842      96204.5      
0.357164      96219.7      
0.357489      96233.9      
0.357816      96245.7      
0.358148      96255.5      
0.358483      96263.2      
0.358821      96269.2      
0.359161      96274.1      
0.359504      96277.8      
0.35985       96279.1      
0.360199      96278.6      
0.360551      96275.9      
0.360907      96270.3      
0.361266      96264.5      
0.361628      96257.8      
0.361993      96248.9      
0.362362      96237.9      
0.362735      96224.4      
0.363111      96208.3      
0.363487      96190.8      
0.363868      96171.1      
0.364252      96150.3      
0.364641      96128.3      
0.365034      96103.6      
0.365427      96078.2      
0.365824      96052.4      
0.366226      96024.5      
0.366628      95995.2      
0.367035      95965.1      
0.367447      95935        
0.367859      95905.1      
0.368277      95874        
0.3687        95841.7      
0.369123      95810        
0.369551      95778.5      
0.36998       95746.6      
0.370415      95717        
0.37085       95688.9      
0.371292      95660.8      
0.371734      95633.1      
0.372175      95607.4      
0.372617      95584.8      
0.373066      95563.1      
0.373515      95543.2      
0.373964      95525.8      
0.374421      95510.1      
0.374877      95495        
0.375343      95484.2      
0.375808      95476.9      
0.376273      95471        
0.376748      95467        
0.377222      95465.5      
0.377697      95467.4      
0.378181      95471.7      
0.378666      95477.8      
0.37914       95485.9      
0.379614      95495.9      
0.380089      95505        
0.380563      95518        
0.381037      95533.9      
0.381499      95549.5      
0.381962      95565.9      
0.382424      95582.9      
0.382887      95600.5      
0.383349      95618.6      
0.383812      95636.8      
0.384274      95655        
0.384737      95673        
0.385186      95689.8      
0.385635      95704.3      
0.386084      95719.6      
0.386533      95734.7      
0.386981      95749.1      
0.38743       95761.9      
0.387879      95772.3      
0.388328      95781.3      
0.388777      95788.7      
0.389226      95794.8      
0.389675      95800.1      
0.390124      95803.4      
0.390573      95804.3      
0.391022      95803.4      
0.391471      95801.1      
0.39192       95794.8      
0.392368      95787.1      
0.392817      95780.4      
0.393266      95771.7      
0.393715      95759.9      
0.394164      95746        
0.394613      95731.1      
0.395062      95715.2      
0.395511      95698        
0.39596       95679.7      
0.396409      95660.3      
0.396858      95639.8      
0.397307      95618.5      
0.397755      95597.2      
0.398204      95574.3      
0.398653      95550.4      
0.399102      95526.8      
0.399551      95504.1      
0.4           95482        
