# Probe 0 (0.29 0.5 0.0073)
# Time        0            
0.00119048    350          
0.00262605    350          
0.00431798    349.924      
0.00630415    349.852      
0.0087317     349.831      
0.0116794     349.812      
0.0151631     349.795      
0.0190339     349.777      
0.0234576     349.749      
0.0278813     349.706      
0.0315678     349.672      
0.0352542     349.649      
0.0382034     349.628      
0.0411525     349.611      
0.0441017     349.59       
0.0470508     349.574      
0.05          349.559      
0.0525        349.547      
0.055         349.529      
0.0573684     349.519      
0.0597368     349.508      
0.0619737     349.495      
0.0642105     349.483      
0.0663158     349.474      
0.0684211     349.464      
0.0705263     349.453      
0.0724912     349.443      
0.0744561     349.435      
0.0764211     349.425      
0.078386      349.415      
0.0801871     349.407      
0.0819883     349.399      
0.0837895     349.391      
0.0855906     349.382      
0.0873918     349.375      
0.089193      349.367      
0.0909942     349.358      
0.0927953     349.35       
0.0945965     349.342      
0.0963977     349.334      
0.0981988     349.325      
0.1           349.317      
0.101471      349.311      
0.102898      349.305      
0.104283      349.299      
0.105628      349.294      
0.106933      349.288      
0.1082        349.283      
0.109429      349.278      
0.110622      349.274      
0.11178       349.269      
0.112905      349.264      
0.113996      349.261      
0.115055      349.256      
0.116082      349.252      
0.11708       349.248      
0.118048      349.244      
0.118988      349.241      
0.1199        349.237      
0.120785      349.234      
0.121645      349.23       
0.122432      349.227      
0.123158      349.224      
0.123754      349.222      
0.124279      349.22       
0.124764      349.218      
0.125215      349.216      
0.125642      349.215      
0.126048      349.213      
0.126441      349.212      
0.126827      349.211      
0.127207      349.21       
0.127581      349.208      
0.127954      349.207      
0.128322      349.206      
0.128689      349.205      
0.129063      349.204      
0.129437      349.203      
0.129825      349.202      
0.130213      349.2        
0.130609      349.199      
0.131013      349.198      
0.131417      349.197      
0.131821      349.196      
0.132234      349.195      
0.132647      349.193      
0.13306       349.192      
0.133473      349.191      
0.133887      349.19       
0.1343        349.188      
0.134713      349.187      
0.135137      349.185      
0.135562      349.184      
0.136         349.183      
0.136451      349.182      
0.136918      349.18       
0.137386      349.179      
0.137853      349.177      
0.138339      349.176      
0.138846      349.174      
0.139353      349.172      
0.13986       349.169      
0.140393      349.167      
0.140927      349.165      
0.141461      349.163      
0.141995      349.161      
0.142528      349.158      
0.143062      349.155      
0.143596      349.152      
0.144129      349.149      
0.144663      349.147      
0.145197      349.145      
0.14573       349.142      
0.146264      349.139      
0.146798      349.136      
0.147332      349.133      
0.147865      349.13       
0.148399      349.128      
0.148933      349.125      
0.149466      349.122      
0.15          349.12       
0.150595      349.116      
0.151198      349.112      
0.151808      349.109      
0.152434      349.105      
0.153068      349.102      
0.153711      349.098      
0.154363      349.095      
0.155024      349.091      
0.155695      349.088      
0.156377      349.084      
0.157069      349.079      
0.157773      349.075      
0.158477      349.071      
0.159193      349.068      
0.159922      349.064      
0.16065       349.059      
0.161393      349.054      
0.162135      349.05       
0.162893      349.046      
0.16365       349.041      
0.164423      349.035      
0.165197      349.031      
0.16597       349.026      
0.166743      349.021      
0.167517      349.016      
0.168272      349.011      
0.169028      349.006      
0.169783      349.001      
0.170539      348.996      
0.171275      348.991      
0.172012      348.986      
0.172748      348.981      
0.173485      348.975      
0.174221      348.97       
0.174958      348.964      
0.175694      348.959      
0.176431      348.954      
0.177167      348.949      
0.177904      348.944      
0.17864       348.939      
0.179377      348.933      
0.180114      348.925      
0.18085       348.918      
0.181587      348.912      
0.182323      348.907      
0.18306       348.899      
0.183796      348.892      
0.184533      348.885      
0.185236      348.879      
0.185939      348.873      
0.186642      348.865      
0.18731       348.858      
0.187978      348.852      
0.188646      348.847      
0.189276      348.842      
0.189907      348.835      
0.190501      348.828      
0.191095      348.822      
0.191688      348.816      
0.192282      348.811      
0.192876      348.805      
0.193469      348.799      
0.194014      348.792      
0.194558      348.786      
0.195102      348.781      
0.195646      348.775      
0.19619       348.769      
0.196735      348.762      
0.197279      348.755      
0.197823      348.749      
0.198367      348.744      
0.198912      348.739      
0.199456      348.733      
0.2           348.725      
0.200495      348.719      
0.20099       348.713      
0.20148       348.708      
0.20197       348.703      
0.202451      348.697      
0.202926      348.691      
0.203402      348.684      
0.203858      348.678      
0.204325      348.673      
0.204777      348.667      
0.205216      348.663      
0.205673      348.658      
0.20613       348.652      
0.206577      348.647      
0.20703       348.642      
0.207477      348.636      
0.207911      348.632      
0.208345      348.627      
0.208788      348.621      
0.209213      348.615      
0.209629      348.609      
0.210054      348.602      
0.210488      348.596      
0.2109        348.591      
0.21132       348.586      
0.21176       348.58       
0.212176      348.574      
0.212582      348.569      
0.213008      348.563      
0.213423      348.557      
0.213825      348.553      
0.214223      348.549      
0.214629      348.544      
0.215036      348.538      
0.215433      348.533      
0.215826      348.527      
0.216219      348.522      
0.216616      348.517      
0.217014      348.512      
0.217411      348.507      
0.217808      348.5        
0.218211      348.494      
0.218613      348.488      
0.219021      348.482      
0.219423      348.476      
0.219826      348.471      
0.220228      348.467      
0.22063       348.462      
0.221038      348.455      
0.221435      348.45       
0.221837      348.444      
0.222239      348.439      
0.222642      348.433      
0.223038      348.428      
0.223435      348.423      
0.223844      348.417      
0.224246      348.411      
0.224648      348.405      
0.225051      348.399      
0.225467      348.392      
0.225869      348.387      
0.226271      348.382      
0.22668       348.376      
0.227096      348.368      
0.227505      348.362      
0.227914      348.356      
0.228331      348.351      
0.228756      348.343      
0.229173      348.337      
0.229581      348.331      
0.229989      348.325      
0.230406      348.318      
0.230832      348.311      
0.231249      348.305      
0.231666      348.299      
0.232082      348.293      
0.232509      348.286      
0.232935      348.279      
0.233362      348.272      
0.233789      348.265      
0.234215      348.259      
0.234654      348.252      
0.235092      348.245      
0.235531      348.238      
0.235969      348.231      
0.236408      348.221      
0.236846      348.213      
0.237285      348.207      
0.237723      348.2        
0.238178      348.191      
0.238632      348.181      
0.23907       348.175      
0.239507      348.168      
0.239944      348.159      
0.240401      348.15       
0.240837      348.144      
0.241274      348.137      
0.24171       348.128      
0.242146      348.119      
0.242583      348.112      
0.243019      348.106      
0.243455      348.098      
0.243892      348.09       
0.244328      348.083      
0.244764      348.074      
0.245201      348.065      
0.245637      348.058      
0.246073      348.052      
0.24651       348.044      
0.246946      348.036      
0.247382      348.028      
0.247818      348.019      
0.248255      348.01       
0.248691      348.002      
0.249127      347.996      
0.249564      347.988      
0.25          347.977      
0.25045       347.968      
0.250901      347.961      
0.251351      347.954      
0.251806      347.943      
0.252265      347.934      
0.25272       347.928      
0.253174      347.92       
0.253633      347.91       
0.254102      347.9        
0.254565      347.893      
0.255029      347.886      
0.255493      347.876      
0.255956      347.866      
0.25642       347.858      
0.256879      347.85       
0.257337      347.841      
0.257796      347.833      
0.258255      347.824      
0.258708      347.817      
0.259167      347.808      
0.259621      347.799      
0.260075      347.79       
0.260523      347.782      
0.260972      347.774      
0.26142       347.767      
0.261874      347.757      
0.262323      347.747      
0.262771      347.739      
0.263215      347.733      
0.263658      347.725      
0.264106      347.713      
0.26455       347.704      
0.264993      347.696      
0.26543       347.689      
0.265874      347.68       
0.266317      347.67       
0.26676       347.661      
0.267203      347.653      
0.26764       347.645      
0.268084      347.636      
0.268527      347.627      
0.268977      347.619      
0.26942       347.612      
0.269863      347.603      
0.270313      347.592      
0.27077       347.581      
0.271219      347.575      
0.271669      347.568      
0.272119      347.56       
0.272568      347.549      
0.273026      347.538      
0.273475      347.531      
0.273925      347.525      
0.274374      347.516      
0.274824      347.508      
0.275273      347.496      
0.275715      347.488      
0.276156      347.483      
0.276598      347.473      
0.277031      347.467      
0.277473      347.456      
0.277915      347.447      
0.278348      347.441      
0.278772      347.432      
0.279197      347.425      
0.279613      347.415      
0.280029      347.408      
0.280445      347.403      
0.280861      347.394      
0.281277      347.386      
0.281693      347.377      
0.2821        347.369      
0.282507      347.363      
0.282914      347.356      
0.283321      347.349      
0.283727      347.341      
0.284134      347.33       
0.284541      347.323      
0.284948      347.316      
0.285355      347.311      
0.285761      347.305      
0.286157      347.296      
0.286552      347.286      
0.286948      347.278      
0.287356      347.268      
0.287751      347.263      
0.288146      347.258      
0.288541      347.25       
0.288951      347.239      
0.28936       347.23       
0.289769      347.222      
0.290178      347.216      
0.290571      347.209      
0.290964      347.201      
0.291357      347.193      
0.29175       347.184      
0.292143      347.178      
0.292556      347.171      
0.29297       347.163      
0.293383      347.155      
0.293797      347.146      
0.29421       347.136      
0.294624      347.13       
0.295037      347.122      
0.295451      347.114      
0.295865      347.106      
0.296278      347.098      
0.296692      347.085      
0.297105      347.082      
0.297519      347.075      
0.297932      347.067      
0.298346      347.059      
0.298759      347.051      
0.299173      347.039      
0.299586      347.036      
0.3           347.029      
0.300403      347.021      
0.300806      347.012      
0.30121       347.004      
0.301616      346.994      
0.302019      346.989      
0.302419      346.984      
0.302819      346.976      
0.303219      346.966      
0.303619      346.957      
0.304019      346.948      
0.304418      346.942      
0.304815      346.937      
0.305208      346.93       
0.305601      346.922      
0.305994      346.914      
0.306387      346.904      
0.306779      346.897      
0.307172      346.89       
0.307562      346.885      
0.307947      346.878      
0.308333      346.87       
0.308719      346.862      
0.309105      346.853      
0.309491      346.845      
0.309873      346.839      
0.310251      346.832      
0.31063       346.826      
0.311009      346.82       
0.311387      346.812      
0.311766      346.801      
0.31214       346.794      
0.312515      346.788      
0.312886      346.782      
0.313258      346.777      
0.313629      346.77       
0.314         346.762      
0.314371      346.751      
0.314738      346.743      
0.315106      346.737      
0.315469      346.732      
0.315833      346.726      
0.316196      346.72       
0.31656       346.713      
0.316919      346.704      
0.317283      346.692      
0.317642      346.687      
0.318002      346.68       
0.318361      346.674      
0.318721      346.669      
0.319076      346.661      
0.319432      346.653      
0.319787      346.644      
0.320143      346.632      
0.320498      346.627      
0.320849      346.619      
0.3212        346.61       
0.321552      346.6        
0.321903      346.592      
0.322254      346.58       
0.322601      346.567      
0.322952      346.549      
0.323299      346.535      
0.323646      346.518      
0.323992      346.498      
0.324339      346.476      
0.324686      346.451      
0.325033      346.421      
0.325375      346.385      
0.325717      346.342      
0.326059      346.292      
0.326401      346.24       
0.326743      346.18       
0.327085      346.11       
0.327427      346.028      
0.327769      345.935      
0.328111      345.829      
0.328448      345.707      
0.328784      345.569      
0.329121      345.414      
0.329458      345.244      
0.329795      345.054      
0.330131      344.841      
0.330457      344.614      
0.330778      344.368      
0.331093      344.105      
0.331398      343.828      
0.331693      343.537      
0.331979      343.234      
0.332261      342.92       
0.332533      342.597      
0.332798      342.266      
0.333055      341.928      
0.333304      341.583      
0.333546      341.233      
0.333784      340.873      
0.334016      340.509      
0.334244      340.134      
0.334463      339.761      
0.334676      339.385      
0.334886      339.003      
0.33509       338.618      
0.335284      338.247      
0.33547       337.881      
0.335652      337.515      
0.335829      337.15       
0.336004      336.783      
0.336177      336.412      
0.336347      336.039      
0.336516      335.664      
0.336682      335.286      
0.336847      334.905      
0.337009      334.521      
0.337168      334.139      
0.337322      333.76       
0.337477      333.375      
0.337618      333.019      
0.337752      332.676      
0.337884      332.336      
0.338013      332          
0.33814       331.664      
0.338266      331.329      
0.338394      330.989      
0.338521      330.649      
0.338648      330.311      
0.338774      329.972      
0.3389        329.632      
0.339026      329.29       
0.339152      328.946      
0.339278      328.599      
0.339404      328.249      
0.339531      327.897      
0.339657      327.541      
0.339781      327.187      
0.339906      326.831      
0.340032      326.469      
0.340163      326.091      
0.340298      325.701      
0.340437      325.299      
0.340579      324.883      
0.340724      324.459      
0.340872      324.027      
0.341021      323.59       
0.341173      323.149      
0.341328      322.71       
0.341483      322.282      
0.341641      321.857      
0.341799      321.444      
0.341956      321.044      
0.342117      320.643      
0.342278      320.246      
0.342442      319.842      
0.342607      319.439      
0.342775      319.028      
0.342943      318.619      
0.343115      318.206      
0.343287      317.8        
0.343464      317.392      
0.34364       316.994      
0.343822      316.599      
0.344004      316.22       
0.344185      315.861      
0.344373      315.512      
0.34456       315.188      
0.344748      314.89       
0.344943      314.611      
0.345137      314.361      
0.345332      314.139      
0.345535      313.94       
0.345738      313.772      
0.345941      313.632      
0.346144      313.519      
0.346358      313.428      
0.346572      313.366      
0.346786      313.331      
0.347001      313.323      
0.347215      313.34       
0.347429      313.38       
0.347663      313.449      
0.347896      313.538      
0.34813       313.645      
0.348364      313.766      
0.348598      313.899      
0.348831      314.04       
0.349065      314.186      
0.349299      314.339      
0.349533      314.497      
0.349766      314.658      
0.35          314.822      
0.350253      315.003      
0.350508      315.192      
0.350765      315.392      
0.351026      315.603      
0.351289      315.83       
0.351555      316.073      
0.351825      316.338      
0.352097      316.623      
0.352372      316.933      
0.352649      317.267      
0.352929      317.624      
0.353213      318.008      
0.3535        318.417      
0.353789      318.847      
0.354081      319.305      
0.354375      319.784      
0.354674      320.285      
0.354974      320.799      
0.355278      321.327      
0.355584      321.86       
0.355895      322.387      
0.356208      322.908      
0.356523      323.419      
0.356842      323.924      
0.357164      324.42       
0.357489      324.906      
0.357816      325.38       
0.358148      325.841      
0.358483      326.288      
0.358821      326.717      
0.359161      327.128      
0.359504      327.522      
0.35985       327.897      
0.360199      328.248      
0.360551      328.577      
0.360907      328.879      
0.361266      329.153      
0.361628      329.399      
0.361993      329.613      
0.362362      329.791      
0.362735      329.93       
0.363111      330.026      
0.363487      330.078      
0.363868      330.083      
0.364252      330.04       
0.364641      329.945      
0.365034      329.797      
0.365427      329.598      
0.365824      329.349      
0.366226      329.049      
0.366628      328.705      
0.367035      328.314      
0.367447      327.878      
0.367859      327.396      
0.368277      326.863      
0.3687        326.286      
0.369123      325.678      
0.369551      325.008      
0.36998       324.279      
0.370415      323.545      
0.37085       322.88       
0.371292      322.191      
0.371734      321.491      
0.372175      320.863      
0.372617      320.205      
0.373066      319.553      
0.373515      318.902      
0.373964      318.275      
0.374421      317.69       
0.374877      317.155      
0.375343      316.668      
0.375808      316.252      
0.376273      315.909      
0.376748      315.639      
0.377222      315.457      
0.377697      315.373      
0.378181      315.403      
0.378666      315.56       
0.37914       315.852      
0.379614      316.294      
0.380089      316.921      
0.380563      317.684      
0.381037      318.618      
0.381499      319.516      
0.381962      320.571      
0.382424      321.794      
0.382887      323.15       
0.383349      324.644      
0.383812      326.153      
0.384274      327.656      
0.384737      329.116      
0.385186      330.459      
0.385635      331.722      
0.386084      332.907      
0.386533      334.034      
0.386981      335.09       
0.38743       336.07       
0.387879      336.969      
0.388328      337.788      
0.388777      338.533      
0.389226      339.208      
0.389675      339.82       
0.390124      340.372      
0.390573      340.869      
0.391022      341.315      
0.391471      341.715      
0.39192       342.075      
0.392368      342.395      
0.392817      342.687      
0.393266      342.952      
0.393715      343.188      
0.394164      343.399      
0.394613      343.589      
0.395062      343.76       
0.395511      343.915      
0.39596       344.053      
0.396409      344.177      
0.396858      344.287      
0.397307      344.384      
0.397755      344.469      
0.398204      344.543      
0.398653      344.606      
0.399102      344.659      
0.399551      344.704      
0.4           344.743      
