# Probe 0 (0.29 0.5 0.0073)
# Time        0            
0.00119048    (-0.00201751 0.000425253 0)
0.00262605    (-0.0189664 -0.0306947 0)
0.00431798    (-0.0192413 -0.0252895 0)
0.00630415    (-0.0176752 -0.00281697 0)
0.0087317     (-0.0232693 0.000211386 0)
0.0116794     (-0.0283247 0.00307761 0)
0.0151631     (-0.0373029 0.00554953 0)
0.0190339     (-0.0484752 0.00694701 0)
0.0234576     (-0.0637284 0.00844786 0)
0.0278813     (-0.0708192 0.010424 0)
0.0315678     (-0.0688363 0.0121721 0)
0.0352542     (-0.0766203 0.0134514 0)
0.0382034     (-0.0787399 0.0149359 0)
0.0411525     (-0.0873706 0.0158383 0)
0.0441017     (-0.0888973 0.017385 0)
0.0470508     (-0.0921051 0.0184004 0)
0.05          (-0.0965251 0.0194518 0)
0.0525        (-0.105004 0.0199774 0)
0.055         (-0.10464 0.0213818 0)
0.0573684     (-0.106661 0.0218655 0)
0.0597368     (-0.112841 0.0222498 0)
0.0619737     (-0.117021 0.0234146 0)
0.0642105     (-0.117184 0.0240222 0)
0.0663158     (-0.119846 0.0243374 0)
0.0684211     (-0.12441 0.0249526 0)
0.0705263     (-0.127251 0.0255958 0)
0.0724912     (-0.127225 0.0259782 0)
0.0744561     (-0.130773 0.0262189 0)
0.0764211     (-0.134127 0.0267398 0)
0.078386      (-0.134998 0.0273093 0)
0.0801871     (-0.13656 0.0273862 0)
0.0819883     (-0.138694 0.027698 0)
0.0837895     (-0.141484 0.0279755 0)
0.0855906     (-0.142336 0.0282604 0)
0.0873918     (-0.143734 0.0284959 0)
0.089193      (-0.146082 0.0287241 0)
0.0909942     (-0.148038 0.0287147 0)
0.0927953     (-0.148628 0.0289641 0)
0.0945965     (-0.149994 0.0292397 0)
0.0963977     (-0.152892 0.0291654 0)
0.0981988     (-0.152873 0.0293009 0)
0.1           (-0.153559 0.0294643 0)
0.101471      (-0.154739 0.0293233 0)
0.102898      (-0.154938 0.0296203 0)
0.104283      (-0.155476 0.0295773 0)
0.105628      (-0.156731 0.0293382 0)
0.106933      (-0.157351 0.0295853 0)
0.1082        (-0.15755 0.0295349 0)
0.109429      (-0.158217 0.0295478 0)
0.110622      (-0.159106 0.0293839 0)
0.11178       (-0.159477 0.0294618 0)
0.112905      (-0.159438 0.0296394 0)
0.113996      (-0.159998 0.0292381 0)
0.115055      (-0.160672 0.0292781 0)
0.116082      (-0.160916 0.0293812 0)
0.11708       (-0.161054 0.0292503 0)
0.118048      (-0.161079 0.0290598 0)
0.118988      (-0.161323 0.0288916 0)
0.1199        (-0.161671 0.0290195 0)
0.120785      (-0.161996 0.0289628 0)
0.121645      (-0.162262 0.0288561 0)
0.122432      (-0.162277 0.0286418 0)
0.123158      (-0.161932 0.0284362 0)
0.123754      (-0.161781 0.0284481 0)
0.124279      (-0.16203 0.0286266 0)
0.124764      (-0.162454 0.0288467 0)
0.125215      (-0.162766 0.0289951 0)
0.125642      (-0.162872 0.0289863 0)
0.126048      (-0.162816 0.028832 0)
0.126441      (-0.162693 0.02869 0)
0.126827      (-0.162568 0.0287192 0)
0.127207      (-0.162466 0.0288973 0)
0.127581      (-0.162391 0.0290509 0)
0.127954      (-0.162334 0.0290121 0)
0.128322      (-0.162296 0.0287766 0)
0.128689      (-0.1623 0.0285372 0)
0.129063      (-0.162352 0.0284737 0)
0.129437      (-0.162455 0.0284915 0)
0.129825      (-0.162619 0.0284206 0)
0.130213      (-0.1628 0.0283213 0)
0.130609      (-0.162922 0.0283436 0)
0.131013      (-0.162915 0.0285194 0)
0.131417      (-0.1628 0.028705 0)
0.131821      (-0.162675 0.0287406 0)
0.132234      (-0.162594 0.0286132 0)
0.132647      (-0.162529 0.028387 0)
0.13306       (-0.162399 0.0281141 0)
0.133473      (-0.16216 0.0278686 0)
0.133887      (-0.161903 0.0277387 0)
0.1343        (-0.161806 0.0277513 0)
0.134713      (-0.161937 0.0278605 0)
0.135137      (-0.162163 0.0279999 0)
0.135562      (-0.162318 0.0280789 0)
0.136         (-0.16234 0.0280761 0)
0.136451      (-0.162207 0.0279763 0)
0.136918      (-0.161964 0.0277069 0)
0.137386      (-0.161704 0.0273608 0)
0.137853      (-0.161408 0.0271635 0)
0.138339      (-0.160959 0.0270409 0)
0.138846      (-0.160441 0.0265758 0)
0.139353      (-0.16013 0.0260979 0)
0.13986       (-0.160111 0.0263533 0)
0.140393      (-0.160251 0.0269287 0)
0.140927      (-0.160364 0.0268595 0)
0.141461      (-0.160224 0.0262291 0)
0.141995      (-0.159645 0.0255271 0)
0.142528      (-0.158751 0.0252306 0)
0.143062      (-0.157858 0.0253574 0)
0.143596      (-0.15714 0.0256289 0)
0.144129      (-0.156658 0.0259078 0)
0.144663      (-0.156427 0.0258992 0)
0.145197      (-0.156253 0.0255458 0)
0.14573       (-0.155832 0.0251046 0)
0.146264      (-0.155072 0.0248819 0)
0.146798      (-0.154213 0.0250026 0)
0.147332      (-0.153515 0.0251128 0)
0.147865      (-0.152961 0.0251653 0)
0.148399      (-0.152373 0.02522 0)
0.148933      (-0.15163 0.025078 0)
0.149466      (-0.150823 0.024693 0)
0.15          (-0.150187 0.0242916 0)
0.150595      (-0.149741 0.0240882 0)
0.151198      (-0.149356 0.0241645 0)
0.151808      (-0.14889 0.024409 0)
0.152434      (-0.148307 0.0245342 0)
0.153068      (-0.147618 0.024469 0)
0.153711      (-0.146867 0.0242675 0)
0.154363      (-0.146195 0.0241239 0)
0.155024      (-0.145719 0.0240915 0)
0.155695      (-0.145341 0.0235698 0)
0.156377      (-0.144873 0.0230158 0)
0.157069      (-0.144383 0.0232293 0)
0.157773      (-0.144081 0.0239255 0)
0.158477      (-0.143945 0.0241556 0)
0.159193      (-0.143499 0.0232825 0)
0.159922      (-0.142739 0.0220415 0)
0.16065       (-0.142423 0.0221741 0)
0.161393      (-0.142865 0.0231215 0)
0.162135      (-0.143275 0.0230293 0)
0.162893      (-0.142977 0.0218431 0)
0.16365       (-0.142641 0.0213372 0)
0.164423      (-0.142992 0.0220255 0)
0.165197      (-0.143663 0.0217289 0)
0.16597       (-0.144244 0.0209364 0)
0.166743      (-0.145117 0.0209502 0)
0.167517      (-0.14602 0.0209659 0)
0.168272      (-0.146458 0.0205584 0)
0.169028      (-0.146894 0.0204537 0)
0.169783      (-0.147691 0.0204034 0)
0.170539      (-0.148997 0.0199864 0)
0.171275      (-0.150549 0.019601 0)
0.172012      (-0.15188 0.0190679 0)
0.172748      (-0.153117 0.0188045 0)
0.173485      (-0.154715 0.0186309 0)
0.174221      (-0.156377 0.0183155 0)
0.174958      (-0.158025 0.01799 0)
0.175694      (-0.160027 0.0181235 0)
0.176431      (-0.16266 0.0181944 0)
0.177167      (-0.165212 0.0179896 0)
0.177904      (-0.167364 0.0173825 0)
0.17864       (-0.168957 0.0165018 0)
0.179377      (-0.17041 0.015264 0)
0.180114      (-0.17302 0.0149094 0)
0.18085       (-0.177163 0.0158381 0)
0.181587      (-0.180915 0.0155255 0)
0.182323      (-0.183133 0.0141526 0)
0.18306       (-0.18526 0.013494 0)
0.183796      (-0.189225 0.0138749 0)
0.184533      (-0.194801 0.0142976 0)
0.185236      (-0.199198 0.0132983 0)
0.185939      (-0.201516 0.0117175 0)
0.186642      (-0.203877 0.0118814 0)
0.18731       (-0.208074 0.0130336 0)
0.187978      (-0.213918 0.0133404 0)
0.188646      (-0.218821 0.0123871 0)
0.189276      (-0.221707 0.0105651 0)
0.189907      (-0.224614 0.0101846 0)
0.190501      (-0.228803 0.0103461 0)
0.191095      (-0.234342 0.010434 0)
0.191688      (-0.239811 0.0103538 0)
0.192282      (-0.243942 0.00961931 0)
0.192876      (-0.246717 0.00883408 0)
0.193469      (-0.250011 0.00801986 0)
0.194014      (-0.254956 0.00816469 0)
0.194558      (-0.261341 0.00857441 0)
0.195102      (-0.267412 0.0075113 0)
0.195646      (-0.271708 0.00615332 0)
0.19619       (-0.274577 0.00524792 0)
0.196735      (-0.278287 0.00546335 0)
0.197279      (-0.284158 0.00674028 0)
0.197823      (-0.29162 0.00686649 0)
0.198367      (-0.298803 0.00595795 0)
0.198912      (-0.303778 0.00489641 0)
0.199456      (-0.306937 0.00318129 0)
0.2           (-0.310741 0.00284999 0)
0.200495      (-0.31617 0.00378037 0)
0.20099       (-0.323561 0.00399651 0)
0.20148       (-0.331068 0.00298927 0)
0.20197       (-0.336676 0.00209806 0)
0.202451      (-0.3401 0.000680381 0)
0.202926      (-0.343225 -0.000122994 0)
0.203402      (-0.348186 0.000875552 0)
0.203858      (-0.355131 0.000763329 0)
0.204325      (-0.363776 0.00024657 0)
0.204777      (-0.372264 0.00104413 0)
0.205216      (-0.378721 0.000277171 0)
0.205673      (-0.383023 -0.00180374 0)
0.20613       (-0.386721 -0.00150664 0)
0.206577      (-0.391297 -0.000835495 0)
0.20703       (-0.397685 -0.00200218 0)
0.207477      (-0.405848 -0.00215686 0)
0.207911      (-0.414013 -0.00222979 0)
0.208345      (-0.420673 -0.00453071 0)
0.208788      (-0.425542 -0.00631874 0)
0.209213      (-0.429408 -0.00623522 0)
0.209629      (-0.4336 -0.00641972 0)
0.210054      (-0.439285 -0.00732764 0)
0.210488      (-0.447392 -0.00634218 0)
0.2109        (-0.456054 -0.00562206 0)
0.21132       (-0.463556 -0.00823686 0)
0.21176       (-0.469804 -0.00959737 0)
0.212176      (-0.475354 -0.00814005 0)
0.212582      (-0.480902 -0.00821108 0)
0.213008      (-0.487595 -0.00985899 0)
0.213423      (-0.495913 -0.00945511 0)
0.213825      (-0.505208 -0.00801091 0)
0.214223      (-0.513437 -0.0102724 0)
0.214629      (-0.51978 -0.0137483 0)
0.215036      (-0.525203 -0.0130613 0)
0.215433      (-0.530332 -0.0122611 0)
0.215826      (-0.535975 -0.013668 0)
0.216219      (-0.543169 -0.013844 0)
0.216616      (-0.551689 -0.0135348 0)
0.217014      (-0.560027 -0.0157067 0)
0.217411      (-0.567124 -0.0182083 0)
0.217808      (-0.573071 -0.0180881 0)
0.218211      (-0.578704 -0.0171287 0)
0.218613      (-0.584394 -0.018356 0)
0.219021      (-0.591274 -0.0196457 0)
0.219423      (-0.600293 -0.018318 0)
0.219826      (-0.610812 -0.0170364 0)
0.220228      (-0.620516 -0.0188912 0)
0.22063       (-0.627795 -0.0222948 0)
0.221038      (-0.633503 -0.0226401 0)
0.221435      (-0.638485 -0.0214678 0)
0.221837      (-0.643408 -0.0222039 0)
0.222239      (-0.649177 -0.0234755 0)
0.222642      (-0.656886 -0.0231159 0)
0.223038      (-0.665753 -0.022883 0)
0.223435      (-0.67362 -0.0253601 0)
0.223844      (-0.679814 -0.0268641 0)
0.224246      (-0.685221 -0.0262923 0)
0.224648      (-0.691065 -0.026239 0)
0.225051      (-0.697409 -0.028972 0)
0.225467      (-0.70561 -0.0297285 0)
0.225869      (-0.715254 -0.0279096 0)
0.226271      (-0.7246 -0.0290829 0)
0.22668       (-0.731883 -0.0332329 0)
0.227096      (-0.738175 -0.0337512 0)
0.227505      (-0.74521 -0.0311836 0)
0.227914      (-0.75319 -0.0306797 0)
0.228331      (-0.761328 -0.0343865 0)
0.228756      (-0.770371 -0.0364509 0)
0.229173      (-0.78037 -0.0352654 0)
0.229581      (-0.789702 -0.0353696 0)
0.229989      (-0.797331 -0.0369131 0)
0.230406      (-0.803879 -0.0392494 0)
0.230832      (-0.811762 -0.0390435 0)
0.231249      (-0.821102 -0.038791 0)
0.231666      (-0.831311 -0.0395119 0)
0.232082      (-0.840773 -0.0420781 0)
0.232509      (-0.849403 -0.0434429 0)
0.232935      (-0.856537 -0.0445549 0)
0.233362      (-0.863406 -0.0445243 0)
0.233789      (-0.871387 -0.0433392 0)
0.234215      (-0.880285 -0.0456889 0)
0.234654      (-0.889888 -0.0488737 0)
0.235092      (-0.899732 -0.0486245 0)
0.235531      (-0.908522 -0.0489738 0)
0.235969      (-0.915916 -0.0530213 0)
0.236408      (-0.923324 -0.0549354 0)
0.236846      (-0.932603 -0.0519128 0)
0.237285      (-0.943166 -0.0509756 0)
0.237723      (-0.95309 -0.05735 0)
0.238178      (-0.963411 -0.0609001 0)
0.238632      (-0.974844 -0.0572647 0)
0.23907       (-0.98554 -0.0559729 0)
0.239507      (-0.994537 -0.0607187 0)
0.239944      (-1.00348 -0.0653874 0)
0.240401      (-1.01591 -0.0624399 0)
0.240837      (-1.02872 -0.0607129 0)
0.241274      (-1.03832 -0.0662686 0)
0.24171       (-1.04591 -0.0704368 0)
0.242146      (-1.0553 -0.0674274 0)
0.242583      (-1.06646 -0.0658875 0)
0.243019      (-1.07797 -0.0700178 0)
0.243455      (-1.08949 -0.0733531 0)
0.243892      (-1.10091 -0.0733467 0)
0.244328      (-1.1105 -0.0751021 0)
0.244764      (-1.11944 -0.0779192 0)
0.245201      (-1.13049 -0.0766532 0)
0.245637      (-1.14284 -0.0767067 0)
0.246073      (-1.15419 -0.0802938 0)
0.24651       (-1.16455 -0.082533 0)
0.246946      (-1.17414 -0.0832713 0)
0.247382      (-1.18279 -0.0857066 0)
0.247818      (-1.1906 -0.0891918 0)
0.248255      (-1.20059 -0.0880507 0)
0.248691      (-1.21314 -0.0858323 0)
0.249127      (-1.22489 -0.0894572 0)
0.249564      (-1.23458 -0.0962527 0)
0.25          (-1.24473 -0.0983366 0)
0.25045       (-1.25848 -0.0938813 0)
0.250901      (-1.27209 -0.0940038 0)
0.251351      (-1.2824 -0.101661 0)
0.251806      (-1.29321 -0.10581 0)
0.252265      (-1.30738 -0.102167 0)
0.25272       (-1.3208 -0.10188 0)
0.253174      (-1.33087 -0.106957 0)
0.253633      (-1.34019 -0.112068 0)
0.254102      (-1.353 -0.110881 0)
0.254565      (-1.36755 -0.109986 0)
0.255029      (-1.3799 -0.115543 0)
0.255493      (-1.39151 -0.121438 0)
0.255956      (-1.40576 -0.120632 0)
0.25642       (-1.4198 -0.120095 0)
0.256879      (-1.43158 -0.124188 0)
0.257337      (-1.4447 -0.127034 0)
0.257796      (-1.45883 -0.131432 0)
0.258255      (-1.47314 -0.131609 0)
0.258708      (-1.48435 -0.13411 0)
0.259167      (-1.49623 -0.136175 0)
0.259621      (-1.50878 -0.141109 0)
0.260075      (-1.52353 -0.143356 0)
0.260523      (-1.53759 -0.14429 0)
0.260972      (-1.55163 -0.144185 0)
0.26142       (-1.56298 -0.150973 0)
0.261874      (-1.57444 -0.156253 0)
0.262323      (-1.58759 -0.157657 0)
0.262771      (-1.6051 -0.154702 0)
0.263215      (-1.62149 -0.157638 0)
0.263658      (-1.63159 -0.168591 0)
0.264106      (-1.64204 -0.171779 0)
0.26455       (-1.65537 -0.171158 0)
0.264993      (-1.67274 -0.169738 0)
0.26543       (-1.68817 -0.174662 0)
0.265874      (-1.70122 -0.182281 0)
0.266317      (-1.71389 -0.186736 0)
0.26676       (-1.72893 -0.186405 0)
0.267203      (-1.74428 -0.187099 0)
0.26764       (-1.75759 -0.191232 0)
0.268084      (-1.77012 -0.197306 0)
0.268527      (-1.78441 -0.200999 0)
0.268977      (-1.80078 -0.200437 0)
0.26942       (-1.81395 -0.204139 0)
0.269863      (-1.82496 -0.210893 0)
0.270313      (-1.8382 -0.218479 0)
0.27077       (-1.85807 -0.218827 0)
0.271219      (-1.87835 -0.219251 0)
0.271669      (-1.89685 -0.22287 0)
0.272119      (-1.90998 -0.231353 0)
0.272568      (-1.92118 -0.241133 0)
0.273026      (-1.93742 -0.241503 0)
0.273475      (-1.95568 -0.240314 0)
0.273925      (-1.97181 -0.245718 0)
0.274374      (-1.98804 -0.250672 0)
0.274824      (-1.99687 -0.264114 0)
0.275273      (-2.01067 -0.265822 0)
0.275715      (-2.02961 -0.262742 0)
0.276156      (-2.04499 -0.270117 0)
0.276598      (-2.06298 -0.274191 0)
0.277031      (-2.07569 -0.285413 0)
0.277473      (-2.09132 -0.292281 0)
0.277915      (-2.11146 -0.291555 0)
0.278348      (-2.12672 -0.298233 0)
0.278772      (-2.14325 -0.301569 0)
0.279197      (-2.15578 -0.312172 0)
0.279613      (-2.17231 -0.318988 0)
0.280029      (-2.19318 -0.319011 0)
0.280445      (-2.20625 -0.326669 0)
0.280861      (-2.21874 -0.330673 0)
0.281277      (-2.23113 -0.336878 0)
0.281693      (-2.24563 -0.345499 0)
0.2821        (-2.2659 -0.350482 0)
0.282507      (-2.28359 -0.356983 0)
0.282914      (-2.301 -0.360174 0)
0.283321      (-2.31568 -0.365077 0)
0.283727      (-2.32533 -0.377264 0)
0.284134      (-2.33992 -0.382555 0)
0.284541      (-2.35528 -0.389273 0)
0.284948      (-2.3761 -0.391818 0)
0.285355      (-2.39781 -0.395334 0)
0.285761      (-2.41552 -0.404957 0)
0.286157      (-2.42566 -0.419485 0)
0.286552      (-2.43853 -0.42522 0)
0.286948      (-2.44792 -0.433026 0)
0.287356      (-2.46877 -0.4326 0)
0.287751      (-2.49204 -0.435161 0)
0.288146      (-2.51034 -0.445994 0)
0.288541      (-2.52217 -0.460603 0)
0.288951      (-2.53498 -0.468157 0)
0.28936       (-2.54873 -0.473668 0)
0.289769      (-2.56899 -0.476078 0)
0.290178      (-2.59023 -0.481625 0)
0.290571      (-2.60851 -0.492163 0)
0.290964      (-2.62569 -0.504999 0)
0.291357      (-2.63928 -0.516931 0)
0.29175       (-2.65802 -0.52062 0)
0.292143      (-2.6773 -0.522968 0)
0.292556      (-2.69272 -0.529266 0)
0.29297       (-2.70911 -0.538156 0)
0.293383      (-2.72622 -0.550865 0)
0.293797      (-2.73791 -0.567014 0)
0.29421       (-2.76089 -0.570861 0)
0.294624      (-2.78239 -0.575146 0)
0.295037      (-2.79962 -0.581631 0)
0.295451      (-2.81832 -0.589141 0)
0.295865      (-2.8363 -0.600713 0)
0.296278      (-2.84306 -0.622201 0)
0.296692      (-2.86951 -0.625483 0)
0.297105      (-2.8961 -0.631723 0)
0.297519      (-2.91735 -0.641597 0)
0.297932      (-2.9369 -0.650455 0)
0.298346      (-2.95605 -0.659059 0)
0.298759      (-2.96228 -0.679219 0)
0.299173      (-2.98695 -0.685863 0)
0.299586      (-3.01182 -0.695505 0)
0.3           (-3.03169 -0.706451 0)
0.300403      (-3.04869 -0.714863 0)
0.300806      (-3.06559 -0.721616 0)
0.30121       (-3.07454 -0.73738 0)
0.301616      (-3.09689 -0.750275 0)
0.302019      (-3.12566 -0.761962 0)
0.302419      (-3.14892 -0.773696 0)
0.302819      (-3.16377 -0.78478 0)
0.303219      (-3.1774 -0.792005 0)
0.303619      (-3.1869 -0.803752 0)
0.304019      (-3.20669 -0.817696 0)
0.304418      (-3.23518 -0.834358 0)
0.304815      (-3.26357 -0.848325 0)
0.305208      (-3.28516 -0.859096 0)
0.305601      (-3.30277 -0.868392 0)
0.305994      (-3.31215 -0.88193 0)
0.306387      (-3.32554 -0.895459 0)
0.306779      (-3.34385 -0.914538 0)
0.307172      (-3.3708 -0.92919 0)
0.307562      (-3.39527 -0.941502 0)
0.307947      (-3.41718 -0.953053 0)
0.308333      (-3.43648 -0.965766 0)
0.308719      (-3.44597 -0.982416 0)
0.309105      (-3.45796 -1.00007 0)
0.309491      (-3.47722 -1.01571 0)
0.309873      (-3.49876 -1.03096 0)
0.310251      (-3.5212 -1.04532 0)
0.31063       (-3.54642 -1.05946 0)
0.311009      (-3.56875 -1.07588 0)
0.311387      (-3.57643 -1.09724 0)
0.311766      (-3.59024 -1.11499 0)
0.31214       (-3.61113 -1.12985 0)
0.312515      (-3.63315 -1.14639 0)
0.312886      (-3.6581 -1.16356 0)
0.313258      (-3.68144 -1.18275 0)
0.313629      (-3.70134 -1.20194 0)
0.314         (-3.70615 -1.22323 0)
0.314371      (-3.71746 -1.2417 0)
0.314738      (-3.73763 -1.25782 0)
0.315106      (-3.76041 -1.27519 0)
0.315469      (-3.78467 -1.29516 0)
0.315833      (-3.8093 -1.31707 0)
0.316196      (-3.83132 -1.33863 0)
0.31656       (-3.84787 -1.35888 0)
0.316919      (-3.84676 -1.38103 0)
0.317283      (-3.86401 -1.40037 0)
0.317642      (-3.8832 -1.42035 0)
0.318002      (-3.90372 -1.44018 0)
0.318361      (-3.92814 -1.46067 0)
0.318721      (-3.95085 -1.48489 0)
0.319076      (-3.9715 -1.50857 0)
0.319432      (-3.99065 -1.53177 0)
0.319787      (-3.99241 -1.55607 0)
0.320143      (-4.01242 -1.57826 0)
0.320498      (-4.0328 -1.60057 0)
0.320849      (-4.0513 -1.62251 0)
0.3212        (-4.07146 -1.64545 0)
0.321552      (-4.0961 -1.66925 0)
0.321903      (-4.11815 -1.69666 0)
0.322254      (-4.13751 -1.72419 0)
0.322601      (-4.14096 -1.74896 0)
0.322952      (-4.15881 -1.77368 0)
0.323299      (-4.17748 -1.79772 0)
0.323646      (-4.19412 -1.82098 0)
0.323992      (-4.21281 -1.84485 0)
0.324339      (-4.2348 -1.87053 0)
0.324686      (-4.25813 -1.89807 0)
0.325033      (-4.27655 -1.92518 0)
0.325375      (-4.28333 -1.95094 0)
0.325717      (-4.28362 -1.9736 0)
0.326059      (-4.29509 -1.9964 0)
0.326401      (-4.31023 -2.01942 0)
0.326743      (-4.32531 -2.04445 0)
0.327085      (-4.34068 -2.07166 0)
0.327427      (-4.35701 -2.09902 0)
0.327769      (-4.37289 -2.12521 0)
0.328111      (-4.38231 -2.14733 0)
0.328448      (-4.38066 -2.16538 0)
0.328784      (-4.37293 -2.18191 0)
0.329121      (-4.37267 -2.20029 0)
0.329458      (-4.37311 -2.21948 0)
0.329795      (-4.37339 -2.23851 0)
0.330131      (-4.37205 -2.25789 0)
0.330457      (-4.36975 -2.27543 0)
0.330778      (-4.37014 -2.2894 0)
0.331093      (-4.36696 -2.30081 0)
0.331398      (-4.36035 -2.31076 0)
0.331693      (-4.33748 -2.31179 0)
0.331979      (-4.32043 -2.31525 0)
0.332261      (-4.30547 -2.32154 0)
0.332533      (-4.28925 -2.32625 0)
0.332798      (-4.27283 -2.32851 0)
0.333055      (-4.25584 -2.32916 0)
0.333304      (-4.23917 -2.32849 0)
0.333546      (-4.22428 -2.32715 0)
0.333784      (-4.21106 -2.32539 0)
0.334016      (-4.19747 -2.32344 0)
0.334244      (-4.17885 -2.31981 0)
0.334463      (-4.15937 -2.31449 0)
0.334676      (-4.13849 -2.30806 0)
0.334886      (-4.10569 -2.29444 0)
0.33509       (-4.07809 -2.28211 0)
0.335284      (-4.05537 -2.27315 0)
0.33547       (-4.03142 -2.26405 0)
0.335652      (-4.00603 -2.25402 0)
0.335829      (-3.9809 -2.24282 0)
0.336004      (-3.95755 -2.23042 0)
0.336177      (-3.93637 -2.2179 0)
0.336347      (-3.91765 -2.20607 0)
0.336516      (-3.90054 -2.19513 0)
0.336682      (-3.88424 -2.1849 0)
0.336847      (-3.86737 -2.17493 0)
0.337009      (-3.84896 -2.16456 0)
0.337168      (-3.83004 -2.15301 0)
0.337322      (-3.80986 -2.14037 0)
0.337477      (-3.78678 -2.12583 0)
0.337618      (-3.76317 -2.11158 0)
0.337752      (-3.739 -2.09753 0)
0.337884      (-3.71364 -2.08283 0)
0.338013      (-3.68269 -2.06422 0)
0.33814       (-3.64531 -2.04069 0)
0.338266      (-3.6084 -2.01627 0)
0.338394      (-3.57416 -1.99265 0)
0.338521      (-3.54141 -1.96944 0)
0.338648      (-3.51034 -1.94673 0)
0.338774      (-3.48161 -1.92476 0)
0.3389        (-3.45539 -1.90399 0)
0.339026      (-3.43102 -1.88446 0)
0.339152      (-3.40737 -1.86545 0)
0.339278      (-3.38492 -1.84602 0)
0.339404      (-3.3633 -1.82608 0)
0.339531      (-3.3421 -1.80644 0)
0.339657      (-3.32156 -1.78762 0)
0.339781      (-3.30167 -1.77003 0)
0.339906      (-3.28211 -1.75353 0)
0.340032      (-3.26255 -1.73739 0)
0.340163      (-3.24185 -1.72035 0)
0.340298      (-3.219 -1.70189 0)
0.340437      (-3.19217 -1.68096 0)
0.340579      (-3.15867 -1.65585 0)
0.340724      (-3.11373 -1.62504 0)
0.340872      (-3.05327 -1.58543 0)
0.341021      (-2.97896 -1.53588 0)
0.341173      (-2.8961 -1.47777 0)
0.341328      (-2.81113 -1.41416 0)
0.341483      (-2.72738 -1.34673 0)
0.341641      (-2.65183 -1.28107 0)
0.341799      (-2.59405 -1.22608 0)
0.341956      (-2.55239 -1.18181 0)
0.342117      (-2.52227 -1.14492 0)
0.342278      (-2.50131 -1.11414 0)
0.342442      (-2.48692 -1.08767 0)
0.342607      (-2.47721 -1.06504 0)
0.342775      (-2.47102 -1.04468 0)
0.342943      (-2.46746 -1.02556 0)
0.343115      (-2.46402 -1.00592 0)
0.343287      (-2.45788 -0.983804 0)
0.343464      (-2.44587 -0.956014 0)
0.34364       (-2.42749 -0.92111 0)
0.343822      (-2.40277 -0.876547 0)
0.344004      (-2.373 -0.823876 0)
0.344185      (-2.33897 -0.764001 0)
0.344373      (-2.29685 -0.695977 0)
0.34456       (-2.24886 -0.624045 0)
0.344748      (-2.19785 -0.551008 0)
0.344943      (-2.14204 -0.473849 0)
0.345137      (-2.08136 -0.393032 0)
0.345332      (-2.02409 -0.317659 0)
0.345535      (-1.97053 -0.248006 0)
0.345738      (-1.92077 -0.18342 0)
0.345941      (-1.87537 -0.122543 0)
0.346144      (-1.83453 -0.0664208 0)
0.346358      (-1.79679 -0.00695251 0)
0.346572      (-1.76479 0.0510882 0)
0.346786      (-1.73608 0.108705 0)
0.347001      (-1.70863 0.167002 0)
0.347215      (-1.68117 0.225266 0)
0.347429      (-1.65304 0.286854 0)
0.347663      (-1.61838 0.357177 0)
0.347896      (-1.57714 0.431363 0)
0.34813       (-1.52671 0.510041 0)
0.348364      (-1.46964 0.590853 0)
0.348598      (-1.4067 0.672529 0)
0.348831      (-1.33575 0.759724 0)
0.349065      (-1.26772 0.843674 0)
0.349299      (-1.20339 0.92117 0)
0.349533      (-1.14156 0.996717 0)
0.349766      (-1.08102 1.07077 0)
0.35          (-1.02365 1.14242 0)
0.350253      (-0.96423 1.21887 0)
0.350508      (-0.905742 1.29565 0)
0.350765      (-0.848033 1.37292 0)
0.351026      (-0.788664 1.45263 0)
0.351289      (-0.72604 1.5352 0)
0.351555      (-0.661733 1.62066 0)
0.351825      (-0.591587 1.70933 0)
0.352097      (-0.517332 1.80027 0)
0.352372      (-0.441871 1.8913 0)
0.352649      (-0.359237 1.98769 0)
0.352929      (-0.278652 2.07944 0)
0.353213      (-0.20208 2.16662 0)
0.3535        (-0.127791 2.25354 0)
0.353789      (-0.0566406 2.33973 0)
0.354081      (0.00854677 2.42503 0)
0.354375      (0.0678345 2.50655 0)
0.354674      (0.124289 2.58418 0)
0.354974      (0.179132 2.65779 0)
0.355278      (0.229158 2.72961 0)
0.355584      (0.280391 2.80021 0)
0.355895      (0.335162 2.86883 0)
0.356208      (0.389562 2.93431 0)
0.356523      (0.444141 2.99927 0)
0.356842      (0.493424 3.05769 0)
0.357164      (0.533917 3.10647 0)
0.357489      (0.569821 3.15015 0)
0.357816      (0.603618 3.1905 0)
0.358148      (0.635764 3.22804 0)
0.358483      (0.667025 3.26335 0)
0.358821      (0.697814 3.29781 0)
0.359161      (0.725079 3.33081 0)
0.359504      (0.750061 3.36076 0)
0.35985       (0.776358 3.38821 0)
0.360199      (0.800713 3.41473 0)
0.360551      (0.823789 3.44034 0)
0.360907      (0.84697 3.46539 0)
0.361266      (0.861468 3.48067 0)
0.361628      (0.869026 3.48891 0)
0.361993      (0.871618 3.49336 0)
0.362362      (0.868491 3.49301 0)
0.362735      (0.862497 3.48739 0)
0.363111      (0.853984 3.47779 0)
0.363487      (0.839183 3.46503 0)
0.363868      (0.820955 3.44941 0)
0.364252      (0.79615 3.42864 0)
0.364641      (0.763847 3.40234 0)
0.365034      (0.728501 3.37679 0)
0.365427      (0.684572 3.34356 0)
0.365824      (0.633525 3.29668 0)
0.366226      (0.57832 3.24361 0)
0.366628      (0.519432 3.18665 0)
0.367035      (0.457537 3.12209 0)
0.367447      (0.387365 3.05181 0)
0.367859      (0.307252 2.97372 0)
0.368277      (0.223049 2.89124 0)
0.3687        (0.137445 2.80536 0)
0.369123      (0.0454699 2.71958 0)
0.369551      (-0.0572862 2.63321 0)
0.36998       (-0.169185 2.54875 0)
0.370415      (-0.288617 2.45777 0)
0.37085       (-0.403101 2.37205 0)
0.371292      (-0.517673 2.29174 0)
0.371734      (-0.637999 2.21224 0)
0.372175      (-0.750246 2.13838 0)
0.372617      (-0.870658 2.06075 0)
0.373066      (-0.992323 1.98057 0)
0.373515      (-1.11688 1.89732 0)
0.373964      (-1.24478 1.81016 0)
0.374421      (-1.37081 1.72872 0)
0.374877      (-1.49155 1.65624 0)
0.375343      (-1.61349 1.57705 0)
0.375808      (-1.7346 1.4969 0)
0.376273      (-1.85194 1.42425 0)
0.376748      (-1.9645 1.35351 0)
0.377222      (-2.07582 1.28984 0)
0.377697      (-2.18863 1.23129 0)
0.378181      (-2.29802 1.17849 0)
0.378666      (-2.40114 1.13381 0)
0.37914       (-2.49628 1.09256 0)
0.379614      (-2.59348 1.05195 0)
0.380089      (-2.68443 1.02607 0)
0.380563      (-2.78116 0.996887 0)
0.381037      (-2.883 0.972198 0)
0.381499      (-2.9575 0.966576 0)
0.381962      (-3.02158 0.962367 0)
0.382424      (-3.08281 0.959714 0)
0.382887      (-3.14031 0.955595 0)
0.383349      (-3.19894 0.946892 0)
0.383812      (-3.25278 0.936082 0)
0.384274      (-3.30396 0.92127 0)
0.384737      (-3.35298 0.902302 0)
0.385186      (-3.40031 0.882537 0)
0.385635      (-3.44343 0.870414 0)
0.386084      (-3.48546 0.853722 0)
0.386533      (-3.52917 0.832423 0)
0.386981      (-3.57246 0.80577 0)
0.38743       (-3.61365 0.775828 0)
0.387879      (-3.65182 0.747643 0)
0.388328      (-3.68681 0.720203 0)
0.388777      (-3.71924 0.692674 0)
0.389226      (-3.74948 0.666252 0)
0.389675      (-3.77911 0.637792 0)
0.390124      (-3.80575 0.608878 0)
0.390573      (-3.82719 0.580856 0)
0.391022      (-3.84648 0.553292 0)
0.391471      (-3.86454 0.526812 0)
0.39192       (-3.87523 0.510684 0)
0.392368      (-3.88373 0.495742 0)
0.392817      (-3.89601 0.470503 0)
0.393266      (-3.90754 0.444888 0)
0.393715      (-3.91481 0.423366 0)
0.394164      (-3.91915 0.404233 0)
0.394613      (-3.92166 0.387007 0)
0.395062      (-3.92186 0.371295 0)
0.395511      (-3.91937 0.35655 0)
0.39596       (-3.91495 0.34189 0)
0.396409      (-3.90966 0.327764 0)
0.396858      (-3.90346 0.314146 0)
0.397307      (-3.89728 0.3008 0)
0.397755      (-3.89393 0.286707 0)
0.398204      (-3.88727 0.278098 0)
0.398653      (-3.87796 0.273274 0)
0.399102      (-3.86855 0.266223 0)
0.399551      (-3.86112 0.254819 0)
0.4           (-3.85584 0.241024 0)
