# p  POINT_DATA 487
# x y z  p
0.165043 0.0734796 0 97303.5
0.16502 0.0734993 0.0145731 97303.2
0.16502 0.0734993 2.69384e-05 97303.2
0.165043 0.0734796 0.0145506 97303.5
0.165043 0.0734796 0.0146 97303.5
0.164743 0.0735228 0.0146 97303.3
0.164743 0.0735228 0.0142544 97303.3
0.164743 0.0735228 0 97303.3
0.165003 0.073482 0 97303.5
0.165003 0.073482 0.0146 97303.5
0.177739 0.0720216 0 97308.7
0.176873 0.0726526 0.0136045 97300.2
0.176873 0.0726526 0.000995516 97300.2
0.177739 0.0720216 0.0128826 97308.7
0.177739 0.0720216 0.0146 97308.7
0.165071 0.0734956 0.0145689 97303.2
0.165071 0.0734956 3.10998e-05 97303.2
0.176326 0.072102 0 97309
0.176326 0.072102 0.0146 97309
0.190435 0.0710244 0 97312.3
0.188896 0.0719757 0.0128301 97296.9
0.188896 0.0719757 0.00176993 97296.9
0.190435 0.0710244 0.0117417 97312.3
0.190435 0.0710244 0.0146 97312.3
0.178732 0.0725245 0.0134579 97299.1
0.178732 0.0725245 0.00114214 97299.1
0.18806 0.071136 0 97312
0.18806 0.071136 0.0146 97312
0.20313 0.0706495 0 97314.9
0.201226 0.0716081 0.0124095 97295.1
0.201226 0.0716081 0.00219047 97295.1
0.20313 0.0706495 0.0113128 97314.9
0.20313 0.0706495 0.0146 97314.9
0.192144 0.0718048 0.0126346 97295.7
0.192144 0.0718048 0.00196543 97295.7
0.200328 0.0707059 0 97313.8
0.200328 0.0707059 0.0146 97313.8
0.215826 0.0711585 0 97316.7
0.214189 0.071877 0.0127171 97298.4
0.214189 0.071877 0.00188286 97298.4
0.215826 0.0711585 0.0118952 97316.7
0.215826 0.0711585 0.0146 97316.7
0.205037 0.0716063 0.0124074 97295.6
0.205037 0.0716063 0.00219256 97295.6
0.213408 0.0710922 0 97314.9
0.213408 0.0710922 0.0146 97314.9
0.228522 0.073069 0 97312.8
0.228208 0.0732072 0.0142389 97308.9
0.228208 0.0732072 0.000361096 97308.9
0.228522 0.073069 0.0140809 97312.8
0.228522 0.073069 0.0146 97312.8
0.217246 0.0720953 0.0129669 97301.5
0.217246 0.0720953 0.00163314 97301.5
0.228021 0.0730195 0 97312.2
0.228021 0.0730195 0.0146 97312.2
0.228748 0.073295 0.0143394 97309.9
0.228748 0.073295 0.000260624 97309.9
0.230184 0.0735228 0.0146 97310.9
0.230184 0.0735228 0.00191139 97310.9
0.230184 0.0735228 0 97310.9
0.0634783 0.085895 0 97299.6
0.0632607 0.0860661 0.0143498 97297.8
0.0632607 0.0860661 0.000250165 97297.8
0.0634783 0.085895 0.0141541 97299.6
0.0634783 0.085895 0.0146 97299.6
0.0589875 0.0862847 0.0146 97298.4
0.0589875 0.0862847 0.00943567 97298.4
0.0589875 0.0862847 0 97298.4
0.0631057 0.0859102 0 97299.7
0.0631057 0.0859102 0.0146 97299.7
0.0761739 0.0846405 0 97302.9
0.0752214 0.0853272 0.0135046 97295.7
0.0752214 0.0853272 0.00109544 97295.7
0.0761739 0.0846405 0.0127189 97302.9
0.0761739 0.0846405 0.0146 97302.9
0.0637221 0.0860396 0.0143195 97297.6
0.0637221 0.0860396 0.000280466 97297.6
0.0746225 0.0847252 0 97303.5
0.0746225 0.0847252 0.0146 97303.5
0.0888696 0.0832907 0 97305.4
0.0870383 0.0844439 0.0124941 97293.2
0.0870383 0.0844439 0.00210593 97293.2
0.0888696 0.0832907 0.0111747 97305.4
0.0888696 0.0832907 0.0146 97305.4
0.0772895 0.0851634 0.0133171 97294.9
0.0772895 0.0851634 0.00128289 97294.9
0.0860827 0.0834834 0 97306.6
0.0860827 0.0834834 0.0146 97306.6
0.101565 0.0818386 0 97307.5
0.0986616 0.0833659 0.0112608 97290.6
0.0986616 0.0833659 0.00333922 97290.6
0.101565 0.0818386 0.00951344 97307.5
0.101565 0.0818386 0.0146 97307.5
0.0911319 0.0840106 0.0119983 97291.6
0.0911319 0.0840106 0.00260167 97291.6
0.0975257 0.0822241 0 97309
0.0975257 0.0822241 0.0146 97309
0.114261 0.0802678 0 97309.4
0.107706 0.0819053 0.00722049 97289.4
0.114261 0.0802678 0.00771649 97309.4
0.114261 0.0802678 0.0146 97309.4
0.108925 0.0809215 0 97310.9
0.108925 0.0809215 0.0146 97310.9
0.126957 0.078624 0 97310
0.126957 0.078624 0.00583585 97310
0.12071 0.0791005 0.0073387 97294
0.126957 0.078624 0.0146 97310
0.12024 0.0795334 0 97311.8
0.12024 0.0795334 0.0146 97311.8
0.139652 0.0769359 0 97308.9
0.139652 0.0769359 0.00390464 97308.9
0.136741 0.0764487 0.00334728 97303.8
0.136741 0.0764487 0.0112527 97303.8
0.139652 0.0769359 0.0146 97308.9
0.131512 0.078102 0 97311.4
0.130542 0.0771271 0.0073 97304.2
0.131512 0.078102 0.0146 97311.4
0.152348 0.0752136 0 97306.5
0.152348 0.0752136 0.00193425 97306.5
0.15113 0.0747473 0.00140083 97305.3
0.15113 0.0747473 0.0131992 97305.3
0.152348 0.0752136 0.0146 97306.5
0.142739 0.076626 0 97309.6
0.141767 0.0756486 0.00243194 97307.1
0.141767 0.0756486 0.0121681 97307.1
0.142739 0.076626 0.0146 97309.6
0.153903 0.0750857 0 97306.7
0.153306 0.0744858 0.00110164 97306.1
0.153903 0.0750857 0.0146 97306.7
0.153306 0.0744858 0.0134984 97306.1
0.241217 0.0763371 0 97317.6
0.241217 0.0763371 0.00321957 97317.6
0.239769 0.0749784 0.00166517 97317.3
0.239769 0.0749784 0.0129348 97317.3
0.241217 0.0763371 0.0146 97317.6
0.253913 0.0805972 0 97313.9
0.253913 0.0805972 0.00809327 97313.9
0.2498 0.0776575 0.0073 97308.7
0.253913 0.0805972 0.0146 97313.9
0.245401 0.0777283 0 97313.8
0.24389 0.0762097 0.00307383 97310.4
0.24389 0.0762097 0.0115262 97310.4
0.245401 0.0777283 0.0146 97313.8
0.257024 0.0831578 0.0110227 97290.6
0.257024 0.0831578 0.0035773 97290.6
0.265837 0.0862847 0.0146 97291.5
0.265837 0.0862847 0.0137131 97291.5
0.265837 0.0862847 0 97291.5
0.0126957 0.0885773 0 97302.1
0.0126957 0.0885773 0.00262275 97302.1
0.0111827 0.0878056 0.00173992 97301.2
0.0111827 0.0878056 0.0128601 97301.2
0.0126957 0.0885773 0.0146 97302.1
0.00154394 0.0878367 0.0128245 97301.2
0 0.0886353 0.0146 97302.1
0.00154394 0.0878367 0.00177553 97301.2
0 0.0886353 0.00268914 97302.1
0 0.0886353 0 97302.1
0.00233101 0.0886279 0 97302.1
0.00233101 0.0886279 0.0146 97302.1
0.0253913 0.0883218 0 97301.8
0.0253913 0.0883218 0.0023304 97301.8
0.0240415 0.0876416 0.00155224 97301
0.0240415 0.0876416 0.0130478 97301
0.0253913 0.0883218 0.0146 97301.8
0.0149451 0.0885459 0 97302.2
0.0141836 0.0877805 0.00171116 97301.2
0.0141836 0.0877805 0.0128888 97301.2
0.0149451 0.0885459 0.0146 97302.2
0.038087 0.0877925 0 97300.9
0.038087 0.0877925 0.00172492 97300.9
0.0371036 0.0872733 0.00113091 97300.4
0.0371036 0.0872733 0.0134691 97300.4
0.038087 0.0877925 0.0146 97300.9
0.0273636 0.0882674 0 97301.9
0.0266677 0.0875678 0.0014678 97301.2
0.0266677 0.0875678 0.0131322 97301.2
0.0273636 0.0882674 0.0146 97301.9
0.0507826 0.0869897 0 97299.5
0.0507826 0.0869897 0.000806473 97299.5
0.0503369 0.0867327 0.000512524 97299.4
0.0503369 0.0867327 0.0140875 97299.4
0.0507826 0.0869897 0.0146 97299.5
0.0395322 0.0877375 0 97301
0.0389902 0.0871927 0.00103876 97300.6
0.0389902 0.0871927 0.0135612 97300.6
0.0395322 0.0877375 0.0146 97301
0.0514536 0.0869593 0 97299.6
0.0511843 0.0866886 0.000461984 97299.5
0.0514536 0.0869593 0.0146 97299.6
0.0511843 0.0866886 0.014138 97299.5
0.266609 0.0866997 0 97291.5
0.266609 0.0866997 0.000474731 97291.5
0.266415 0.086479 0.000222252 97291.5
0.266415 0.086479 0.0143777 97291.5
0.266609 0.0866997 0.0146 97291.5
0.279304 0.0930072 0 97288
0.279304 0.0930072 0.00769065 97288
0.275932 0.0896747 0.0073 97289.9
0.279304 0.0930072 0.0146 97288
0.267348 0.0870277 0 97291.2
0.266985 0.0866626 0.00043229 97291.4
0.266985 0.0866626 0.0141677 97291.4
0.267348 0.0870277 0.0146 97291.2
0.282435 0.0959 0.0110001 97278.3
0.282435 0.0959 0.00359992 97278.3
0.290955 0.0990467 0.0146 97273.6
0.290955 0.0990467 0.0133982 97273.6
0.290955 0.0990467 0 97273.6
0.292 0.0996402 0 97273.3
0.292 0.0996402 0.000678949 97273.3
0.291705 0.0993429 0.000338894 97273.3
0.291705 0.0993429 0.0142611 97273.3
0.292 0.0996402 0.0146 97273.3
0.315999 0.0553584 0 97264.9
0.314492 0.0512055 0.0073 97266.9
0.315999 0.0553584 0.0084194 97264.9
0.315999 0.0553584 0.0146 97264.9
0.313993 0.047999 0 97276.6
0.313993 0.047999 0.00971702 97276.6
0.313993 0.047999 0.0146 97276.6
0.298 0.102953 0 97270.4
0.298 0.102953 0.00446843 97270.4
0.296893 0.101401 0.00269329 97272
0.296893 0.101401 0.0119067 97272
0.298 0.102953 0.0146 97270.4
0.292333 0.0997539 0 97273.5
0.292216 0.0995071 0.000526787 97273.7
0.292216 0.0995071 0.0140732 97273.7
0.292333 0.0997539 0.0146 97273.5
0.304 0.105034 0 97268.3
0.304 0.105034 0.00684987 97268.3
0.300849 0.102865 0.00717747 97275.4
0.304 0.105034 0.0146 97268.3
0.300203 0.103733 0 97270.6
0.300203 0.103733 0.0146 97270.6
0.31 0.108715 0 97266.2
0.307228 0.107071 0.00748487 97275.6
0.31 0.108715 0.0110607 97266.2
0.31 0.108715 0.0146 97266.2
0.307996 0.107546 0 97267.5
0.307996 0.107546 0.0146 97267.5
0.310675 0.110373 0.0129577 97268.1
0.310675 0.110373 0.00164233 97268.1
0.313912 0.111809 0.0146 97265.4
0.313912 0.111809 0.00952121 97265.4
0.313912 0.111809 0 97265.4
0.315999 0.113489 0 97264
0.315999 0.113489 0.00192189 97264
0.315628 0.112598 0.000903409 97263.9
0.315628 0.112598 0.0136966 97263.9
0.315999 0.113489 0.0146 97264
0.31742 0.0594757 0.0131297 97255.9
0.320134 0.0607609 0.0146 97253.8
0.31742 0.0594757 0.00147034 97255.9
0.320134 0.0607609 0.00427908 97253.8
0.320134 0.0607609 0 97253.8
0.330105 0.0691305 0 97245
0.326275 0.0642257 0.0073 97236.8
0.330105 0.0691305 0.00957511 97245
0.330105 0.0691305 0.0146 97245
0.331924 0.0718764 0.0127165 97246.3
0.335592 0.0735228 0.0146 97247
0.331924 0.0718764 0.00188353 97246.3
0.335592 0.0735228 0.00567927 97247
0.335592 0.0735228 0 97247
0.34421 0.0806901 0 97252.7
0.341154 0.0762879 0.00316335 97250.5
0.34421 0.0806901 0.00819955 97252.7
0.341154 0.0762879 0.0114366 97250.5
0.34421 0.0806901 0.0146 97252.7
0.346702 0.0840298 0.0120203 97252.7
0.350537 0.0862847 0.0146 97253.1
0.346702 0.0840298 0.00257972 97252.7
0.350537 0.0862847 0.00654893 97253.1
0.350537 0.0862847 0 97253.1
0.358315 0.0942981 0 97253.4
0.355173 0.0891276 0.00325226 97254.4
0.358315 0.0942981 0.00916745 97253.4
0.355173 0.0891276 0.0113477 97254.4
0.358315 0.0942981 0.0146 97253.4
0.360203 0.0973388 0.0126461 97252.9
0.362774 0.0990467 0.0146 97253
0.360203 0.0973388 0.00195388 97252.9
0.362774 0.0990467 0.00461532 97253
0.362774 0.0990467 0 97253
0.372421 0.111687 0 97256.1
0.367648 0.103365 0.0073 97252
0.372421 0.111687 0.0144614 97256.1
0.372421 0.111687 0.0146 97256.1
0.372464 0.111769 0.0145551 97256.1
0.37252 0.111809 0.0146 97256.1
0.372464 0.111769 4.49103e-05 97256.1
0.37252 0.111809 0.00010284 97256.1
0.37252 0.111809 0 97256.1
0.330105 0.120865 0 97260.2
0.330105 0.120865 0.0103605 97260.2
0.325627 0.11586 0.0073 97264.6
0.330105 0.120865 0.0146 97260.2
0.320581 0.115954 0 97263.4
0.317798 0.113436 0.00186147 97265.4
0.317798 0.113436 0.0127385 97265.4
0.320581 0.115954 0.0146 97263.4
0.331684 0.123141 0.012965 97260.4
0.331684 0.123141 0.00163503 97260.4
0.334752 0.124571 0.0146 97258.1
0.334752 0.124571 0.00481042 97258.1
0.334752 0.124571 0 97258.1
0.37692 0.1205 0.0073 97261.1
0.380628 0.124571 0.0146 97257.8
0.380628 0.124571 0.00849482 97257.8
0.380628 0.124571 0 97257.8
0.372547 0.111923 0.000131042 97256.3
0.372621 0.11199 0 97256.2
0.372621 0.11199 0.0146 97256.2
0.372547 0.111923 0.014469 97256.3
0.34421 0.133216 0 97253
0.34421 0.133216 0.00989041 97253
0.340822 0.127636 0.00350692 97256
0.340822 0.127636 0.0110931 97256
0.34421 0.133216 0.0146 97253
0.345924 0.135782 0.012826 97251.5
0.345924 0.135782 0.00177398 97251.5
0.348216 0.137332 0.0146 97251.1
0.348216 0.137332 0.00414603 97251.1
0.348216 0.137332 0 97251.1
0.386526 0.136008 0 97257.7
0.383592 0.127225 0.00303653 97257.9
0.386526 0.136008 0.0130844 97257.7
0.383592 0.127225 0.0115635 97257.9
0.386526 0.136008 0.0146 97257.7
0.386894 0.137 0.0142194 97257.5
0.387269 0.137332 0.0146 97257.5
0.386894 0.137 0.000380562 97257.5
0.387269 0.137332 0.000769634 97257.5
0.387269 0.137332 0 97257.5
0.355068 0.147157 0.00336078 97249.6
0.355068 0.147157 0.0112392 97249.6
0.35306 0.142087 0.0073 97249.4
0.355542 0.150094 0.0146 97249.9
0.355542 0.150094 0.011729 97249.9
0.355542 0.150094 0 97249.9
0.352336 0.144685 0 97250.6
0.352336 0.144685 0.0146 97250.6
0.388744 0.148088 0.0123041 97258.8
0.389773 0.150094 0.0146 97258.2
0.388744 0.148088 0.00229587 97258.8
0.389773 0.150094 0.00336144 97258.2
0.389773 0.150094 0 97258.2
0.387145 0.137893 0.000641235 97257.7
0.387359 0.138086 0 97257.6
0.387359 0.138086 0.0146 97257.6
0.387145 0.137893 0.0139588 97257.7
0.358315 0.158989 0 97252.4
0.358315 0.158989 0.0101756 97252.4
0.356996 0.151288 0.0013652 97250
0.356996 0.151288 0.0132348 97250
0.358315 0.158989 0.0146 97252.4
0.35897 0.162264 0.0139222 97253.2
0.35897 0.162264 0.000677759 97253.2
0.359811 0.162856 0.0146 97253.8
0.359811 0.162856 0.00154801 97253.8
0.359811 0.162856 0 97253.8
0.386526 0.162239 0 97257.1
0.386437 0.162776 0.0145082 97257
0.386437 0.162776 9.18404e-05 97257
0.386526 0.162239 0.0138935 97257.1
0.386526 0.162239 0.0146 97257.1
0.386297 0.162856 0.0146 97257
0.386297 0.162856 0.0143629 97257
0.386297 0.162856 0 97257
0.386352 0.162699 0 97257
0.386352 0.162699 0.0146 97257
0.389459 0.152748 0 97258.1
0.388799 0.152151 0.00235298 97258.5
0.389459 0.152748 0.0146 97258.1
0.388799 0.152151 0.012247 97258.5
0.36122 0.17299 0.0115935 97257.7
0.36122 0.17299 0.00300652 97257.7
0.37113 0.175618 0.0146 97255.1
0.37113 0.175618 0.0132645 97255.1
0.37113 0.175618 0 97255.1
0.359127 0.163591 0.000840508 97254.5
0.367464 0.171134 0 97254.6
0.359127 0.163591 0.0137595 97254.5
0.367464 0.171134 0.0146 97254.6
0.382957 0.172389 0.0073 97254.8
0.386347 0.163018 0.000185342 97257
0.386347 0.163018 0.0144147 97257
0.373691 0.175618 0.0146 97255
0.373691 0.175618 0.00131454 97255
0.373691 0.175618 0 97255
0.380972 0.170593 0 97255.1
0.380972 0.170593 0.0146 97255.1
0.372421 0.176627 0 97254.7
0.372421 0.176627 0.00115449 97254.7
0.371767 0.176209 0.000676058 97255.1
0.371767 0.176209 0.0139239 97255.1
0.372421 0.176627 0.0146 97254.7
0.374381 0.177392 0 97254.1
0.373048 0.176186 0.000648956 97254.4
0.374381 0.177392 0.0146 97254.1
0.373048 0.176186 0.013951 97254.4
0.386526 0.19342 0 97248.2
0.381401 0.196505 0.0073 97247.4
0.386526 0.19342 0.00576588 97248.2
0.386526 0.19342 0.0146 97248.2
0.379272 0.201142 0.0146 97249.2
0.379272 0.201142 0.00709134 97249.2
0.379272 0.201142 0 97249.2
0.380192 0.195411 0 97249.2
0.380192 0.195411 0.0146 97249.2
0.400631 0.195518 0 97251.7
0.396708 0.19193 0.0073 97244.5
0.400631 0.195518 0.00816619 97251.7
0.400631 0.195518 0.0146 97251.7
0.389471 0.191044 0.00304789 97244
0.392457 0.193747 0 97249.5
0.389471 0.191044 0.0115521 97244
0.392457 0.193747 0.0146 97249.5
0.403967 0.198124 0.0111468 97252.2
0.407683 0.201142 0.0146 97253.6
0.403967 0.198124 0.00345321 97252.2
0.407683 0.201142 0.0072993 97253.6
0.407683 0.201142 0 97253.6
0.372421 0.21362 0 97258
0.372357 0.213846 6.61557e-05 97258.1
0.372357 0.213846 0.0145338 97258.1
0.372421 0.21362 0.0142753 97258
0.372421 0.21362 0.0146 97258
0.372275 0.213904 0.0146 97258.1
0.372275 0.213904 0.0144489 97258.1
0.372275 0.213904 0 97258.1
0.372296 0.213791 0 97258.1
0.372296 0.213791 0.0146 97258.1
0.375302 0.203749 0.00298239 97251
0.377077 0.205355 0 97255.2
0.375302 0.203749 0.0116176 97251
0.377077 0.205355 0.0146 97255.2
0.414083 0.213313 0.000676061 97260.2
0.412189 0.203447 0.00263671 97256.8
0.414083 0.213313 0.0139239 97260.2
0.412189 0.203447 0.0119633 97256.8
0.41358 0.213904 0.0146 97260.8
0.41358 0.213904 0.0134026 97260.8
0.41358 0.213904 0 97260.8
0.412579 0.211952 0 97259
0.412579 0.211952 0.0146 97259
0.372109 0.226384 0.000322193 97268.2
0.372109 0.226384 0.0142778 97268.2
0.372277 0.214034 0.000149113 97258.1
0.372277 0.214034 0.0144509 97258.1
0.372045 0.226666 0.0146 97268.5
0.372045 0.226666 0.0142113 97268.5
0.372045 0.226666 0 97268.5
0.372101 0.226377 0 97268.5
0.372101 0.226377 0.0146 97268.5
0.411557 0.22379 0.00329073 97264
0.414039 0.214535 0.000721868 97261.2
0.411557 0.22379 0.0113093 97264
0.414039 0.214535 0.0138781 97261.2
0.403718 0.226666 0.0146 97269.7
0.403718 0.226666 0.00319545 97269.7
0.403718 0.226666 0 97269.7
0.409086 0.221554 0 97262.1
0.409086 0.221554 0.0146 97262.1
0.372421 0.227085 0 97268.7
0.372421 0.227085 0.000479932 97268.7
0.372125 0.226933 0.000305686 97268.6
0.372125 0.226933 0.0142943 97268.6
0.372421 0.227085 0.0146 97268.7
0.386526 0.232568 0 97275.4
0.379535 0.233938 0.0073212 97282.9
0.386526 0.232568 0.00675194 97275.4
0.386526 0.232568 0.0146 97275.4
0.372954 0.227149 0 97268.9
0.372954 0.227149 0.0146 97268.9
0.400631 0.228729 0 97270.7
0.400631 0.228729 0.0023603 97270.7
0.394383 0.231105 0.00757745 97281.4
0.400631 0.228729 0.0146 97270.7
0.391761 0.231402 0 97274.1
0.391761 0.231402 0.0146 97274.1
0.402445 0.228307 0 97270.1
0.401668 0.227604 0.00107293 97270.3
0.402445 0.228307 0.0146 97270.1
0.401668 0.227604 0.0135271 97270.3
