# U  POINT_DATA 487
# x y z  U_x U_y U_z
0.165043 0.0734796 0 0.649904 -0.212732 0
0.16502 0.0734993 0.0145731 0.64984 -0.212892 0
0.16502 0.0734993 2.69384e-05 0.64984 -0.212892 0
0.165043 0.0734796 0.0145506 0.649904 -0.212732 0
0.165043 0.0734796 0.0146 0.649904 -0.212732 0
0.164743 0.0735228 0.0146 0.648706 -0.21352 0
0.164743 0.0735228 0.0142544 0.648706 -0.21352 0
0.164743 0.0735228 0 0.648706 -0.21352 0
0.165003 0.073482 0 0.649758 -0.212816 0
0.165003 0.073482 0.0146 0.649758 -0.212816 0
0.177739 0.0720216 0 0.700094 -0.17005 0
0.176873 0.0726526 0.0136045 0.698256 -0.176687 0
0.176873 0.0726526 0.000995516 0.698256 -0.176687 0
0.177739 0.0720216 0.0128826 0.700094 -0.17005 0
0.177739 0.0720216 0.0146 0.700094 -0.17005 0
0.165071 0.0734956 0.0145689 0.650034 -0.212782 0
0.165071 0.0734956 3.10998e-05 0.650034 -0.212782 0
0.176326 0.072102 0 0.695372 -0.174008 0
0.176326 0.072102 0.0146 0.695372 -0.174008 0
0.190435 0.0710244 0 0.74562 -0.114456 0
0.188896 0.0719757 0.0128301 0.743923 -0.128499 0
0.188896 0.0719757 0.00176993 0.743923 -0.128499 0
0.190435 0.0710244 0.0117417 0.74562 -0.114456 0
0.190435 0.0710244 0.0146 0.74562 -0.114456 0
0.178732 0.0725245 0.0134579 0.705159 -0.171266 0
0.178732 0.0725245 0.00114214 0.705159 -0.171266 0
0.18806 0.071136 0 0.738707 -0.123437 0
0.18806 0.071136 0.0146 0.738707 -0.123437 0
0.20313 0.0706495 0 0.773842 -0.03555 0
0.201226 0.0716081 0.0124095 0.775661 -0.0576624 0
0.201226 0.0716081 0.00219047 0.775661 -0.0576624 0
0.20313 0.0706495 0.0113128 0.773842 -0.03555 0
0.20313 0.0706495 0.0146 0.773842 -0.03555 0
0.192144 0.0718048 0.0126346 0.754656 -0.115943 0
0.192144 0.0718048 0.00196543 0.754656 -0.115943 0
0.200328 0.0707059 0 0.767855 -0.0493802 0
0.200328 0.0707059 0.0146 0.767855 -0.0493802 0
0.215826 0.0711585 0 0.775743 0.0601874 0
0.214189 0.071877 0.0127171 0.781856 0.0361654 0
0.214189 0.071877 0.00188286 0.781856 0.0361654 0
0.215826 0.0711585 0.0118952 0.775743 0.0601874 0
0.215826 0.0711585 0.0146 0.775743 0.0601874 0
0.205037 0.0716063 0.0124074 0.783066 -0.0383301 0
0.205037 0.0716063 0.00219256 0.783066 -0.0383301 0
0.213408 0.0710922 0 0.773943 0.0452904 0
0.213408 0.0710922 0.0146 0.773943 0.0452904 0
0.228522 0.073069 0 0.75961 0.155905 0
0.228208 0.0732072 0.0142389 0.761154 0.151191 0
0.228208 0.0732072 0.000361096 0.761154 0.151191 0
0.228522 0.073069 0.0140809 0.75961 0.155905 0
0.228522 0.073069 0.0146 0.75961 0.155905 0
0.217246 0.0720953 0.0129669 0.78019 0.0592341 0
0.217246 0.0720953 0.00163314 0.78019 0.0592341 0
0.228021 0.0730195 0 0.760007 0.152364 0
0.228021 0.0730195 0.0146 0.760007 0.152364 0
0.228748 0.073295 0.0143394 0.760013 0.156256 0
0.228748 0.073295 0.000260624 0.760013 0.156256 0
0.230184 0.0735228 0.0146 0.757149 0.168264 0
0.230184 0.0735228 0.00191139 0.757149 0.168264 0
0.230184 0.0735228 0 0.757149 0.168264 0
0.0634783 0.085895 0 0.243478 -0.331259 0
0.0632607 0.0860661 0.0143498 0.242589 -0.332039 0
0.0632607 0.0860661 0.000250165 0.242589 -0.332039 0
0.0634783 0.085895 0.0141541 0.243478 -0.331259 0
0.0634783 0.085895 0.0146 0.243478 -0.331259 0
0.0589875 0.0862847 0.0146 0.225897 -0.332805 0
0.0589875 0.0862847 0.00943567 0.225897 -0.332805 0
0.0589875 0.0862847 0 0.225897 -0.332805 0
0.0631057 0.0859102 0 0.242029 -0.331322 0
0.0631057 0.0859102 0.0146 0.242029 -0.331322 0
0.0761739 0.0846405 0 0.294542 -0.32593 0
0.0752214 0.0853272 0.0135046 0.290539 -0.329171 0
0.0752214 0.0853272 0.00109544 0.290539 -0.329171 0
0.0761739 0.0846405 0.0127189 0.294542 -0.32593 0
0.0761739 0.0846405 0.0146 0.294542 -0.32593 0
0.0637221 0.0860396 0.0143195 0.244376 -0.331949 0
0.0637221 0.0860396 0.000280466 0.244376 -0.331949 0
0.0746225 0.0847252 0 0.288461 -0.32632 0
0.0746225 0.0847252 0.0146 0.288461 -0.32632 0
0.0888696 0.0832907 0 0.346855 -0.319216 0
0.0870383 0.0844439 0.0124941 0.338891 -0.325026 0
0.0870383 0.0844439 0.00210593 0.338891 -0.325026 0
0.0888696 0.0832907 0.0111747 0.346855 -0.319216 0
0.0888696 0.0832907 0.0146 0.346855 -0.319216 0
0.0772895 0.0851634 0.0133171 0.298609 -0.328549 0
0.0772895 0.0851634 0.00128289 0.298609 -0.328549 0
0.0860827 0.0834834 0 0.335865 -0.320223 0
0.0860827 0.0834834 0.0146 0.335865 -0.320223 0
0.101565 0.0818386 0 0.394723 -0.309846 0
0.0986616 0.0833659 0.0112608 0.382404 -0.318621 0
0.0986616 0.0833659 0.00333922 0.382404 -0.318621 0
0.101565 0.0818386 0.00951344 0.394723 -0.309846 0
0.101565 0.0818386 0.0146 0.394723 -0.309846 0
0.0911319 0.0840106 0.0119983 0.354831 -0.323172 0
0.0911319 0.0840106 0.00260167 0.354831 -0.323172 0
0.0975257 0.0822241 0 0.378662 -0.312088 0
0.0975257 0.0822241 0.0146 0.378662 -0.312088 0
0.114261 0.0802678 0 0.442645 -0.298147 0
0.107706 0.0819053 0.00722049 0.417041 -0.311274 0
0.114261 0.0802678 0.00771649 0.442645 -0.298147 0
0.114261 0.0802678 0.0146 0.442645 -0.298147 0
0.108925 0.0809215 0 0.421264 -0.302378 0
0.108925 0.0809215 0.0146 0.421264 -0.302378 0
0.126957 0.078624 0 0.494191 -0.28455 0
0.126957 0.078624 0.00583585 0.494191 -0.28455 0
0.12071 0.0791005 0.0073387 0.468529 -0.295884 0
0.126957 0.078624 0.0146 0.494191 -0.28455 0
0.12024 0.0795334 0 0.467297 -0.291593 0
0.12024 0.0795334 0.0146 0.467297 -0.291593 0
0.139652 0.0769359 0 0.545351 -0.267152 0
0.139652 0.0769359 0.00390464 0.545351 -0.267152 0
0.136741 0.0764487 0.00334728 0.53366 -0.271164 0
0.136741 0.0764487 0.0112527 0.53366 -0.271164 0
0.139652 0.0769359 0.0146 0.545351 -0.267152 0
0.131512 0.078102 0 0.512442 -0.278477 0
0.130542 0.0771271 0.0073 0.508615 -0.27978 0
0.131512 0.078102 0.0146 0.512442 -0.278477 0
0.152348 0.0752136 0 0.596506 -0.243726 0
0.152348 0.0752136 0.00193425 0.596506 -0.243726 0
0.15113 0.0747473 0.00140083 0.592592 -0.245156 0
0.15113 0.0747473 0.0131992 0.592592 -0.245156 0
0.152348 0.0752136 0.0146 0.596506 -0.243726 0
0.142739 0.076626 0 0.556552 -0.261316 0
0.141767 0.0756486 0.00243194 0.554507 -0.261706 0
0.141767 0.0756486 0.0121681 0.554507 -0.261706 0
0.142739 0.076626 0.0146 0.556552 -0.261316 0
0.153903 0.0750857 0 0.601006 -0.239438 0
0.153306 0.0744858 0.00110164 0.60183 -0.240114 0
0.153903 0.0750857 0.0146 0.601006 -0.239438 0
0.153306 0.0744858 0.0134984 0.60183 -0.240114 0
0.241217 0.0763371 0 0.710718 0.269312 0
0.241217 0.0763371 0.00321957 0.710718 0.269312 0
0.239769 0.0749784 0.00166517 0.737797 0.247906 0
0.239769 0.0749784 0.0129348 0.737797 0.247906 0
0.241217 0.0763371 0.0146 0.710718 0.269312 0
0.253913 0.0805972 0 0.680203 0.361594 0
0.253913 0.0805972 0.00809327 0.680203 0.361594 0
0.2498 0.0776575 0.0073 0.721516 0.326832 0
0.253913 0.0805972 0.0146 0.680203 0.361594 0
0.245401 0.0777283 0 0.706985 0.291467 0
0.24389 0.0762097 0.00307383 0.730176 0.278452 0
0.24389 0.0762097 0.0115262 0.730176 0.278452 0
0.245401 0.0777283 0.0146 0.706985 0.291467 0
0.257024 0.0831578 0.0110227 0.680874 0.383999 0
0.257024 0.0831578 0.0035773 0.680874 0.383999 0
0.265837 0.0862847 0.0146 0.704783 0.412232 0
0.265837 0.0862847 0.0137131 0.704783 0.412232 0
0.265837 0.0862847 0 0.704783 0.412232 0
0.0126957 0.0885773 0 0.0497674 -0.341378 0
0.0126957 0.0885773 0.00262275 0.0497674 -0.341378 0
0.0111827 0.0878056 0.00173992 0.0450849 -0.33774 0
0.0111827 0.0878056 0.0128601 0.0450849 -0.33774 0
0.0126957 0.0885773 0.0146 0.0497674 -0.341378 0
0.00154394 0.0878367 0.0128245 0.0069164 -0.0856972 0
0 0.0886353 0.0146 0 0 0
0.00154394 0.0878367 0.00177553 0.0069164 -0.0856972 0
0 0.0886353 0.00268914 0 0 0
0 0.0886353 0 0 0 0
0.00233101 0.0886279 0 0.00869553 -0.0695612 0
0.00233101 0.0886279 0.0146 0.00869553 -0.0695612 0
0.0253913 0.0883218 0 0.095318 -0.340414 0
0.0253913 0.0883218 0.0023304 0.095318 -0.340414 0
0.0240415 0.0876416 0.00155224 0.0912294 -0.337108 0
0.0240415 0.0876416 0.0130478 0.0912294 -0.337108 0
0.0253913 0.0883218 0.0146 0.095318 -0.340414 0
0.0149451 0.0885459 0 0.0571975 -0.341234 0
0.0141836 0.0877805 0.00171116 0.0553415 -0.337533 0
0.0141836 0.0877805 0.0128888 0.0553415 -0.337533 0
0.0149451 0.0885459 0.0146 0.0571975 -0.341234 0
0.038087 0.0877925 0 0.143671 -0.338784 0
0.038087 0.0877925 0.00172492 0.143671 -0.338784 0
0.0371036 0.0872733 0.00113091 0.141182 -0.336125 0
0.0371036 0.0872733 0.0134691 0.141182 -0.336125 0
0.038087 0.0877925 0.0146 0.143671 -0.338784 0
0.0273636 0.0882674 0 0.102185 -0.340462 0
0.0266677 0.0875678 0.0014678 0.101199 -0.33692 0
0.0266677 0.0875678 0.0131322 0.101199 -0.33692 0
0.0273636 0.0882674 0.0146 0.102185 -0.340462 0
0.0507826 0.0869897 0 0.192782 -0.335765 0
0.0507826 0.0869897 0.000806473 0.192782 -0.335765 0
0.0503369 0.0867327 0.000512524 0.192087 -0.334387 0
0.0503369 0.0867327 0.0140875 0.192087 -0.334387 0
0.0507826 0.0869897 0.0146 0.192782 -0.335765 0
0.0395322 0.0877375 0 0.148376 -0.338753 0
0.0389902 0.0871927 0.00103876 0.148393 -0.335863 0
0.0389902 0.0871927 0.0135612 0.148393 -0.335863 0
0.0395322 0.0877375 0.0146 0.148376 -0.338753 0
0.0514536 0.0869593 0 0.194978 -0.335785 0
0.0511843 0.0866886 0.000461984 0.195382 -0.334228 0
0.0514536 0.0869593 0.0146 0.194978 -0.335785 0
0.0511843 0.0866886 0.014138 0.195382 -0.334228 0
0.266609 0.0866997 0 0.708269 0.412192 0
0.266609 0.0866997 0.000474731 0.708269 0.412192 0
0.266415 0.086479 0.000222252 0.707159 0.413565 0
0.266415 0.086479 0.0143777 0.707159 0.413565 0
0.266609 0.0866997 0.0146 0.708269 0.412192 0
0.279304 0.0930072 0 0.724768 0.436446 0
0.279304 0.0930072 0.00769065 0.724768 0.436446 0
0.275932 0.0896747 0.0073 0.735679 0.44466 0
0.279304 0.0930072 0.0146 0.724768 0.436446 0
0.267348 0.0870277 0 0.707781 0.414479 0
0.266985 0.0866626 0.00043229 0.709015 0.415418 0
0.266985 0.0866626 0.0141677 0.709015 0.415418 0
0.267348 0.0870277 0.0146 0.707781 0.414479 0
0.282435 0.0959 0.0110001 0.738124 0.439534 0
0.282435 0.0959 0.00359992 0.738124 0.439534 0
0.290955 0.0990467 0.0146 0.771597 0.429351 0
0.290955 0.0990467 0.0133982 0.771597 0.429351 0
0.290955 0.0990467 0 0.771597 0.429351 0
0.292 0.0996402 0 0.782468 0.424762 0
0.292 0.0996402 0.000678949 0.782468 0.424762 0
0.291705 0.0993429 0.000338894 0.776612 0.429367 0
0.291705 0.0993429 0.0142611 0.776612 0.429367 0
0.292 0.0996402 0.0146 0.782468 0.424762 0
0.315999 0.0553584 0 0.253847 0.165887 0
0.314492 0.0512055 0.0073 0.137561 0.225328 0
0.315999 0.0553584 0.0084194 0.253847 0.165887 0
0.315999 0.0553584 0.0146 0.253847 0.165887 0
0.313993 0.047999 0 -2.39341e-16 -1.56408e-16 0
0.313993 0.047999 0.00971702 -2.97679e-16 -4.87604e-16 0
0.313993 0.047999 0.0146 2.97679e-16 4.87604e-16 0
0.298 0.102953 0 0.819375 0.393183 0
0.298 0.102953 0.00446843 0.819375 0.393183 0
0.296893 0.101401 0.00269329 0.796629 0.412362 0
0.296893 0.101401 0.0119067 0.796629 0.412362 0
0.298 0.102953 0.0146 0.819375 0.393183 0
0.292333 0.0997539 0 0.781759 0.425047 0
0.292216 0.0995071 0.000526787 0.777977 0.428234 0
0.292216 0.0995071 0.0140732 0.777977 0.428234 0
0.292333 0.0997539 0.0146 0.781759 0.425047 0
0.304 0.105034 0 0.834963 0.373549 0
0.304 0.105034 0.00684987 0.834963 0.373549 0
0.300849 0.102865 0.00717747 0.81467 0.399739 0
0.304 0.105034 0.0146 0.834963 0.373549 0
0.300203 0.103733 0 0.816976 0.389833 0
0.300203 0.103733 0.0146 0.816976 0.389833 0
0.31 0.108715 0 0.850702 0.348854 0
0.307228 0.107071 0.00748487 0.841972 0.370143 0
0.31 0.108715 0.0110607 0.850702 0.348854 0
0.31 0.108715 0.0146 0.850702 0.348854 0
0.307996 0.107546 0 0.844383 0.359386 0
0.307996 0.107546 0.0146 0.844383 0.359386 0
0.310675 0.110373 0.0129577 0.85176 0.344588 0
0.310675 0.110373 0.00164233 0.85176 0.344588 0
0.313912 0.111809 0.0146 0.870565 0.333337 0
0.313912 0.111809 0.00952121 0.870565 0.333337 0
0.313912 0.111809 0 0.870565 0.333337 0
0.315999 0.113489 0 0.892566 0.322968 0
0.315999 0.113489 0.00192189 0.892566 0.322968 0
0.315628 0.112598 0.000903409 0.879221 0.327446 0
0.315628 0.112598 0.0136966 0.879221 0.327446 0
0.315999 0.113489 0.0146 0.892566 0.322968 0
0.31742 0.0594757 0.0131297 0.331039 0.215459 0
0.320134 0.0607609 0.0146 0.380461 0.201951 0
0.31742 0.0594757 0.00147034 0.331039 0.215459 0
0.320134 0.0607609 0.00427908 0.380461 0.201951 0
0.320134 0.0607609 0 0.380461 0.201951 0
0.330105 0.0691305 0 0.583793 0.194124 0
0.326275 0.0642257 0.0073 0.537116 0.188365 0
0.330105 0.0691305 0.00957511 0.583793 0.194124 0
0.330105 0.0691305 0.0146 0.583793 0.194124 0
0.331924 0.0718764 0.0127165 0.712514 0.266801 0
0.335592 0.0735228 0.0146 0.668496 0.149073 0
0.331924 0.0718764 0.00188353 0.712514 0.266801 0
0.335592 0.0735228 0.00567927 0.668496 0.149073 0
0.335592 0.0735228 0 0.668496 0.149073 0
0.34421 0.0806901 0 0.702157 0.119312 0
0.341154 0.0762879 0.00316335 0.659511 0.0906808 0
0.34421 0.0806901 0.00819955 0.702157 0.119312 0
0.341154 0.0762879 0.0114366 0.659511 0.0906808 0
0.34421 0.0806901 0.0146 0.702157 0.119312 0
0.346702 0.0840298 0.0120203 0.820974 0.250522 0
0.350537 0.0862847 0.0146 0.687325 0.151518 0
0.346702 0.0840298 0.00257972 0.820974 0.250522 0
0.350537 0.0862847 0.00654893 0.687325 0.151518 0
0.350537 0.0862847 0 0.687325 0.151518 0
0.358315 0.0942981 0 0.737022 0.157071 0
0.355173 0.0891276 0.00325226 0.663996 0.124321 0
0.358315 0.0942981 0.00916745 0.737022 0.157071 0
0.355173 0.0891276 0.0113477 0.663996 0.124321 0
0.358315 0.0942981 0.0146 0.737022 0.157071 0
0.360203 0.0973388 0.0126461 0.871427 0.228912 0
0.362774 0.0990467 0.0146 0.7914 0.193886 0
0.360203 0.0973388 0.00195388 0.871427 0.228912 0
0.362774 0.0990467 0.00461532 0.7914 0.193886 0
0.362774 0.0990467 0 0.7914 0.193886 0
0.372421 0.111687 0 0.884895 0.214699 0
0.367648 0.103365 0.0073 0.801473 0.201385 0
0.372421 0.111687 0.0144614 0.884895 0.214699 0
0.372421 0.111687 0.0146 0.884895 0.214699 0
0.372464 0.111769 0.0145551 0.887296 0.215202 0
0.37252 0.111809 0.0146 0.886244 0.214598 0
0.372464 0.111769 4.49103e-05 0.887296 0.215202 0
0.37252 0.111809 0.00010284 0.886244 0.214598 0
0.37252 0.111809 0 0.886244 0.214598 0
0.330105 0.120865 0 0.924283 0.302806 0
0.330105 0.120865 0.0103605 0.924283 0.302806 0
0.325627 0.11586 0.0073 0.917484 0.318567 0
0.330105 0.120865 0.0146 0.924283 0.302806 0
0.320581 0.115954 0 0.897622 0.319805 0
0.317798 0.113436 0.00186147 0.892134 0.327894 0
0.317798 0.113436 0.0127385 0.892134 0.327894 0
0.320581 0.115954 0.0146 0.897622 0.319805 0
0.331684 0.123141 0.012965 0.928534 0.300692 0
0.331684 0.123141 0.00163503 0.928534 0.300692 0
0.334752 0.124571 0.0146 0.932738 0.302322 0
0.334752 0.124571 0.00481042 0.932738 0.302322 0
0.334752 0.124571 0 0.932738 0.302322 0
0.37692 0.1205 0.0073 0.910995 0.256753 0
0.380628 0.124571 0.0146 0.875031 0.199588 0
0.380628 0.124571 0.00849482 0.875031 0.199588 0
0.380628 0.124571 0 0.875031 0.199588 0
0.372547 0.111923 0.000131042 0.888019 0.216593 0
0.372621 0.11199 0 0.887053 0.215043 0
0.372621 0.11199 0.0146 0.887053 0.215043 0
0.372547 0.111923 0.014469 0.888019 0.216593 0
0.34421 0.133216 0 0.96384 0.308764 0
0.34421 0.133216 0.00989041 0.96384 0.308764 0
0.340822 0.127636 0.00350692 0.953381 0.31611 0
0.340822 0.127636 0.0110931 0.953381 0.31611 0
0.34421 0.133216 0.0146 0.96384 0.308764 0
0.345924 0.135782 0.012826 0.967584 0.309525 0
0.345924 0.135782 0.00177398 0.967584 0.309525 0
0.348216 0.137332 0.0146 0.965777 0.311367 0
0.348216 0.137332 0.00414603 0.965777 0.311367 0
0.348216 0.137332 0 0.965777 0.311367 0
0.386526 0.136008 0 0.898909 0.259358 0
0.383592 0.127225 0.00303653 0.873899 0.200963 0
0.386526 0.136008 0.0130844 0.898909 0.259358 0
0.383592 0.127225 0.0115635 0.873899 0.200963 0
0.386526 0.136008 0.0146 0.898909 0.259358 0
0.386894 0.137 0.0142194 0.904218 0.270758 0
0.387269 0.137332 0.0146 0.897616 0.271117 0
0.386894 0.137 0.000380562 0.904218 0.270758 0
0.387269 0.137332 0.000769634 0.897616 0.271117 0
0.387269 0.137332 0 0.897616 0.271117 0
0.355068 0.147157 0.00336078 0.961682 0.352869 0
0.355068 0.147157 0.0112392 0.961682 0.352869 0
0.35306 0.142087 0.0073 0.963763 0.339832 0
0.355542 0.150094 0.0146 0.96869 0.354867 0
0.355542 0.150094 0.011729 0.96869 0.354867 0
0.355542 0.150094 0 0.96869 0.354867 0
0.352336 0.144685 0 0.962733 0.3369 0
0.352336 0.144685 0.0146 0.962733 0.3369 0
0.388744 0.148088 0.0123041 0.908498 0.293067 0
0.389773 0.150094 0.0146 0.898867 0.295278 0
0.388744 0.148088 0.00229587 0.908498 0.293067 0
0.389773 0.150094 0.00336144 0.898867 0.295278 0
0.389773 0.150094 0 0.898867 0.295278 0
0.387145 0.137893 0.000641235 0.905002 0.273408 0
0.387359 0.138086 0 0.902421 0.273355 0
0.387359 0.138086 0.0146 0.902421 0.273355 0
0.387145 0.137893 0.0139588 0.905002 0.273408 0
0.358315 0.158989 0 0.951339 0.399426 0
0.358315 0.158989 0.0101756 0.951339 0.399426 0
0.356996 0.151288 0.0013652 0.95826 0.368198 0
0.356996 0.151288 0.0132348 0.95826 0.368198 0
0.358315 0.158989 0.0146 0.951339 0.399426 0
0.35897 0.162264 0.0139222 0.948765 0.411634 0
0.35897 0.162264 0.000677759 0.948765 0.411634 0
0.359811 0.162856 0.0146 0.947393 0.410758 0
0.359811 0.162856 0.00154801 0.947393 0.410758 0
0.359811 0.162856 0 0.947393 0.410758 0
0.386526 0.162239 0 0.911329 0.303033 0
0.386437 0.162776 0.0145082 0.911435 0.303443 0
0.386437 0.162776 9.18404e-05 0.911435 0.303443 0
0.386526 0.162239 0.0138935 0.911329 0.303033 0
0.386526 0.162239 0.0146 0.911329 0.303033 0
0.386297 0.162856 0.0146 0.911626 0.304102 0
0.386297 0.162856 0.0143629 0.911626 0.304102 0
0.386297 0.162856 0 0.911626 0.304102 0
0.386352 0.162699 0 0.911562 0.303483 0
0.386352 0.162699 0.0146 0.911562 0.303483 0
0.389459 0.152748 0 0.902097 0.288834 0
0.388799 0.152151 0.00235298 0.909465 0.299733 0
0.389459 0.152748 0.0146 0.902097 0.288834 0
0.388799 0.152151 0.012247 0.909465 0.299733 0
0.36122 0.17299 0.0115935 0.939743 0.431157 0
0.36122 0.17299 0.00300652 0.939743 0.431157 0
0.37113 0.175618 0.0146 0.926476 0.401322 0
0.37113 0.175618 0.0132645 0.926476 0.401322 0
0.37113 0.175618 0 0.926476 0.401322 0
0.359127 0.163591 0.000840508 0.94772 0.416073 0
0.367464 0.171134 0 0.93344 0.403868 0
0.359127 0.163591 0.0137595 0.94772 0.416073 0
0.367464 0.171134 0.0146 0.93344 0.403868 0
0.382957 0.172389 0.0073 0.909865 0.344085 0
0.386347 0.163018 0.000185342 0.911629 0.304212 0
0.386347 0.163018 0.0144147 0.911629 0.304212 0
0.373691 0.175618 0.0146 0.922175 0.39214 0
0.373691 0.175618 0.00131454 0.922175 0.39214 0
0.373691 0.175618 0 0.922175 0.39214 0
0.380972 0.170593 0 0.909406 0.350488 0
0.380972 0.170593 0.0146 0.909406 0.350488 0
0.372421 0.176627 0 0.924368 0.40061 0
0.372421 0.176627 0.00115449 0.924368 0.40061 0
0.371767 0.176209 0.000676058 0.925746 0.399459 0
0.371767 0.176209 0.0139239 0.925746 0.399459 0
0.372421 0.176627 0.0146 0.924368 0.40061 0
0.374381 0.177392 0 0.918108 0.403573 0
0.373048 0.176186 0.000648956 0.923086 0.397877 0
0.374381 0.177392 0.0146 0.918108 0.403573 0
0.373048 0.176186 0.013951 0.923086 0.397877 0
0.386526 0.19342 0 0.871145 0.466446 0
0.381401 0.196505 0.0073 0.881472 0.502647 0
0.386526 0.19342 0.00576588 0.871145 0.466446 0
0.386526 0.19342 0.0146 0.871145 0.466446 0
0.379272 0.201142 0.0146 0.876455 0.507397 0
0.379272 0.201142 0.00709134 0.876455 0.507397 0
0.379272 0.201142 0 0.876455 0.507397 0
0.380192 0.195411 0 0.888141 0.474459 0
0.380192 0.195411 0.0146 0.888141 0.474459 0
0.400631 0.195518 0 0.845578 0.373206 0
0.396708 0.19193 0.0073 0.852082 0.383954 0
0.400631 0.195518 0.00816619 0.845578 0.373206 0
0.400631 0.195518 0.0146 0.845578 0.373206 0
0.389471 0.191044 0.00304789 0.867534 0.463387 0
0.392457 0.193747 0 0.862565 0.4549 0
0.389471 0.191044 0.0115521 0.867534 0.463387 0
0.392457 0.193747 0.0146 0.862565 0.4549 0
0.403967 0.198124 0.0111468 0.833863 0.457319 0
0.407683 0.201142 0.0146 0.754946 0.41058 0
0.403967 0.198124 0.00345321 0.833863 0.457319 0
0.407683 0.201142 0.0072993 0.754946 0.41058 0
0.407683 0.201142 0 0.754946 0.41058 0
0.372421 0.21362 0 0.839827 0.557272 0
0.372357 0.213846 6.61557e-05 0.838916 0.558575 0
0.372357 0.213846 0.0145338 0.838916 0.558575 0
0.372421 0.21362 0.0142753 0.839827 0.557272 0
0.372421 0.21362 0.0146 0.839827 0.557272 0
0.372275 0.213904 0.0146 0.838761 0.558858 0
0.372275 0.213904 0.0144489 0.838761 0.558858 0
0.372275 0.213904 0 0.838761 0.558858 0
0.372296 0.213791 0 0.839983 0.558272 0
0.372296 0.213791 0.0146 0.839983 0.558272 0
0.375302 0.203749 0.00298239 0.876676 0.517428 0
0.377077 0.205355 0 0.874692 0.510462 0
0.375302 0.203749 0.0116176 0.876676 0.517428 0
0.377077 0.205355 0.0146 0.874692 0.510462 0
0.414083 0.213313 0.000676061 0.859035 0.438156 0
0.412189 0.203447 0.00263671 0.731114 0.390286 0
0.414083 0.213313 0.0139239 0.859035 0.438156 0
0.412189 0.203447 0.0119633 0.731114 0.390286 0
0.41358 0.213904 0.0146 0.859721 0.438436 0
0.41358 0.213904 0.0134026 0.859721 0.438436 0
0.41358 0.213904 0 0.859721 0.438436 0
0.412579 0.211952 0 0.85782 0.44118 0
0.412579 0.211952 0.0146 0.85782 0.44118 0
0.372109 0.226384 0.000322193 0.79687 0.53929 0
0.372109 0.226384 0.0142778 0.79687 0.53929 0
0.372277 0.214034 0.000149113 0.838099 0.55893 0
0.372277 0.214034 0.0144509 0.838099 0.55893 0
0.372045 0.226666 0.0146 0.794178 0.538363 0
0.372045 0.226666 0.0142113 0.794178 0.538363 0
0.372045 0.226666 0 0.794178 0.538363 0
0.372101 0.226377 0 0.79739 0.53869 0
0.372101 0.226377 0.0146 0.79739 0.53869 0
0.411557 0.22379 0.00329073 0.874163 0.423205 0
0.414039 0.214535 0.000721868 0.860826 0.43611 0
0.411557 0.22379 0.0113093 0.874163 0.423205 0
0.414039 0.214535 0.0138781 0.860826 0.43611 0
0.403718 0.226666 0.0146 0.875156 0.407299 0
0.403718 0.226666 0.00319545 0.875156 0.407299 0
0.403718 0.226666 0 0.875156 0.407299 0
0.409086 0.221554 0 0.869984 0.433385 0
0.409086 0.221554 0.0146 0.869984 0.433385 0
0.372421 0.227085 0 0.793871 0.533472 0
0.372421 0.227085 0.000479932 0.793871 0.533472 0
0.372125 0.226933 0.000305686 0.794288 0.537046 0
0.372125 0.226933 0.0142943 0.794288 0.537046 0
0.372421 0.227085 0.0146 0.793871 0.533472 0
0.386526 0.232568 0 0.733313 0.421629 0
0.379535 0.233938 0.0073212 0.783965 0.47602 0
0.386526 0.232568 0.00675194 0.733313 0.421629 0
0.386526 0.232568 0.0146 0.733313 0.421629 0
0.372954 0.227149 0 0.789557 0.52997 0
0.372954 0.227149 0.0146 0.789557 0.52997 0
0.400631 0.228729 0 0.812714 0.390817 0
0.400631 0.228729 0.0023603 0.812714 0.390817 0
0.394383 0.231105 0.00757745 0.856756 0.426142 0
0.400631 0.228729 0.0146 0.812714 0.390817 0
0.391761 0.231402 0 0.708863 0.417811 0
0.391761 0.231402 0.0146 0.708863 0.417811 0
0.402445 0.228307 0 0.818635 0.423933 0
0.401668 0.227604 0.00107293 0.880913 0.387863 0
0.402445 0.228307 0.0146 0.818635 0.423933 0
0.401668 0.227604 0.0135271 0.880913 0.387863 0
