# p  POINT_DATA 278
# x y z  p
0.251252 0.0047424 0.00305992 98928.7
0.253202 0.000336101 0.000817864 98940.7
0.251252 0.0047424 0.0115401 98928.7
0.253202 0.000336101 0.0137821 98940.7
0.246455 0.00599987 0.0146 98934.8
0.246455 0.00599987 0.00602294 98934.8
0.246455 0.00599987 0 98934.8
0.252708 0 0 98945.6
0.252708 0 0.0132137 98945.6
0.252708 0 0.0146 98945.6
0.249152 0.00374978 0 98947
0.249152 0.00374978 0.0146 98947
0.241217 0.00878099 0 98933.4
0.238627 0.0107755 0.0116211 98927.3
0.238627 0.0107755 0.00297894 98927.3
0.241217 0.00878099 0.00676753 98933.4
0.241217 0.00878099 0.0146 98933.4
0.235646 0.0119997 0.0146 98943
0.235646 0.0119997 0.00819249 98943
0.235646 0.0119997 0 98943
0.237199 0.0101009 0 98953.6
0.237199 0.0101009 0.0146 98953.6
0.244662 0.00762756 0 98936.3
0.243071 0.00687571 0.00213126 98935.9
0.244662 0.00762756 0.0146 98936.3
0.243071 0.00687571 0.0124687 98935.9
0.228522 0.0164846 0 98941
0.227491 0.0175123 0.0134141 98938.7
0.227491 0.0175123 0.0011859 98938.7
0.228522 0.0164846 0.0109135 98941
0.228522 0.0164846 0.0146 98941
0.22583 0.0179996 0.0146 98949
0.22583 0.0179996 0.0115041 98949
0.22583 0.0179996 0 98949
0.226553 0.0170694 0 98956.6
0.226553 0.0170694 0.0146 98956.6
0.233418 0.0143136 0 98949.5
0.232149 0.0137139 0.0073 98940.1
0.233418 0.0143136 0.0146 98949.5
0.21668 0.0235961 0.0136184 98946.7
0.216416 0.0239995 0.0146 98949.9
0.21668 0.0235961 0.000981646 98946.7
0.216416 0.0239995 0.000678845 98949.9
0.216416 0.0239995 0 98949.9
0.220448 0.020184 0.0073 98942
0.221624 0.0207398 0 98969.5
0.221624 0.0207398 0.0146 98969.5
0.215826 0.024389 0 98949.7
0.211888 0.0281384 0.0073 98934.9
0.215826 0.024389 0.000947915 98949.7
0.215826 0.024389 0.0146 98949.7
0.208317 0.0299994 0.0146 98971
0.208317 0.0299994 0.00596449 98971
0.208317 0.0299994 0 98971
0.210734 0.027593 0 98989.6
0.210734 0.027593 0.0146 98989.6
0.216308 0.0242273 0 98950.2
0.216079 0.0241189 0.000290649 98950.2
0.216308 0.0242273 0.0146 98950.2
0.216079 0.0241189 0.0143094 98950.2
0.20313 0.0341755 0 98962.7
0.202076 0.0355009 0.0133874 98957.5
0.202076 0.0355009 0.00121265 98957.5
0.20313 0.0341755 0.0101621 98962.7
0.20313 0.0341755 0.0146 98962.7
0.200766 0.0359992 0.0146 98973.4
0.200766 0.0359992 0.0118812 98973.4
0.200766 0.0359992 0 98973.4
0.201235 0.0351035 0 98983.4
0.201235 0.0351035 0.0146 98983.4
0.206926 0.031793 0 98978
0.205512 0.0311247 0.00273848 98971.4
0.206926 0.031793 0.0146 98978
0.205512 0.0311247 0.0118615 98971.4
0.198445 0.0386477 0.00701493 98926.8
0.19534 0.0419991 0.0146 98978.4
0.19534 0.0419991 0.00564065 98978.4
0.19534 0.0419991 0 98978.4
0.19739 0.0392861 0 98999.5
0.19739 0.0392861 0.0146 98999.5
0.190506 0.0479655 0.0145185 98959.9
0.190527 0.047999 0.0146 98960.1
0.190506 0.0479655 8.15405e-05 98959.9
0.190527 0.047999 0.000106299 98960.1
0.190527 0.047999 0 98960.1
0.193024 0.0432226 0.00297718 98974.6
0.194358 0.043853 0 98985.5
0.194358 0.043853 0.0146 98985.5
0.193024 0.0432226 0.0116228 98974.6
0.190435 0.0481611 0 98959.9
0.187057 0.0573656 0.0073 98933.8
0.190435 0.0481611 0.000185449 98959.9
0.190435 0.0481611 0.0146 98959.9
0.184059 0.0607609 0.0146 98967.8
0.184059 0.0607609 0.00726802 98967.8
0.184059 0.0607609 0 98967.8
0.185847 0.0561488 0 98996.9
0.185847 0.0561488 0.0146 98996.9
0.190516 0.0480808 0 98960.1
0.190479 0.0480435 5.09267e-05 98960.1
0.190516 0.0480808 0.0146 98960.1
0.190479 0.0480435 0.0145491 98960.1
0.178045 0.0732154 0.0142483 98944.4
0.178101 0.0735228 0.0146 98945.2
0.178045 0.0732154 0.000351705 98944.4
0.178101 0.0735228 0.000415586 98945.2
0.178101 0.0735228 0 98945.2
0.180897 0.0639349 0.00363118 98962.4
0.182363 0.0654091 0 98977.4
0.182363 0.0654091 0.0146 98977.4
0.180897 0.0639349 0.0109688 98962.4
0.177739 0.0742854 0 98944.4
0.174907 0.0834378 0.011343 98924.4
0.174907 0.0834378 0.00325697 98924.4
0.177739 0.0742854 0.000872418 98944.4
0.177739 0.0742854 0.0146 98944.4
0.172654 0.0862847 0.0146 98949.9
0.172654 0.0862847 0.00875204 98949.9
0.172654 0.0862847 0 98949.9
0.173812 0.0823369 0 98968.8
0.173812 0.0823369 0.0146 98968.8
0.178054 0.0738396 0 98945.4
0.177911 0.0736951 0.00019713 98945.3
0.178054 0.0738396 0.0146 98945.4
0.177911 0.0736951 0.0144029 98945.3
0.169602 0.0931556 0.00748682 98923.6
0.168569 0.0990467 0.0146 98940.1
0.168569 0.0990467 0.00405378 98940.1
0.168569 0.0990467 0 98940.1
0.170814 0.0920852 0 98959
0.170814 0.0920852 0.0146 98959
0.165043 0.110161 0 98928.8
0.164767 0.111531 0.0142823 98926.9
0.164767 0.111531 0.000317721 98926.9
0.165043 0.110161 0.0127146 98928.8
0.165043 0.110161 0.0146 98928.8
0.164471 0.111809 0.0146 98928.9
0.164471 0.111809 0.0139414 98928.9
0.164471 0.111809 0 98928.9
0.164541 0.111304 0 98931.2
0.164541 0.111304 0.0146 98931.2
0.168005 0.102023 0 98942.3
0.166902 0.100915 0.00213727 98939.4
0.168005 0.102023 0.0146 98942.3
0.166902 0.100915 0.0124627 98939.4
0.162661 0.122176 0.00273949 98914.9
0.164576 0.112278 0.000537415 98925
0.162661 0.122176 0.0118605 98914.9
0.164576 0.112278 0.0140626 98925
0.161081 0.124571 0.0146 98925.9
0.161081 0.124571 0.0100431 98925.9
0.161081 0.124571 0 98925.9
0.161703 0.121213 0 98936.1
0.161703 0.121213 0.0146 98936.1
0.160537 0.130617 0.0071725 98906.6
0.158607 0.137332 0.0146 98918
0.158607 0.137332 0.00719783 98918
0.158607 0.137332 0 98918
0.159569 0.13183 0 98929.2
0.159569 0.13183 0.0146 98929.2
0.152748 0.149692 0.0141395 98915.5
0.152576 0.150094 0.0146 98916.1
0.152748 0.149692 0.000460466 98915.5
0.152576 0.150094 0.000261832 98916.1
0.152576 0.150094 0 98916.1
0.156876 0.141884 0.0073 98911.6
0.157463 0.142474 0 98920.1
0.157463 0.142474 0.0146 98920.1
0.126957 0.16149 0 98926.8
0.126247 0.162143 0.0137844 98924.4
0.126247 0.162143 0.000815572 98924.4
0.126957 0.16149 0.0130367 98926.8
0.126957 0.16149 0.0146 98926.8
0.121035 0.162856 0.0146 98927.5
0.121035 0.162856 0.00779007 98927.5
0.121035 0.162856 0 98927.5
0.125727 0.161621 0 98928.7
0.125727 0.161621 0.0146 98928.7
0.139652 0.158129 0 98924.5
0.137054 0.160244 0.0116118 98920.8
0.137054 0.160244 0.00298816 98920.8
0.139652 0.158129 0.0091921 98924.5
0.139652 0.158129 0.0146 98924.5
0.127961 0.161847 0.0134453 98923.2
0.127961 0.161847 0.00115473 98923.2
0.135759 0.158943 0 98930.5
0.135759 0.158943 0.0146 98930.5
0.152348 0.150336 0 98916.1
0.152348 0.150336 0.000276283 98916.1
0.150524 0.151928 0.00209738 98918
0.150524 0.151928 0.0125026 98918
0.152348 0.150336 0.0146 98916.1
0.145694 0.156168 0 98925.3
0.145682 0.156156 0.0073 98923
0.145694 0.156168 0.0146 98925.3
0.152528 0.150276 0 98916.1
0.152463 0.15021 0.000132544 98916.1
0.152528 0.150276 0.0146 98916.1
0.152463 0.15021 0.0144675 98916.1
0.0126957 0.173968 0 98938.2
0.011688 0.174605 0.0134412 98932.9
0.011688 0.174605 0.00115884 98932.9
0.0126957 0.173968 0.012712 98938.2
0.0126957 0.173968 0.0146 98938.2
0.000941177 0.174672 0.0135176 98933.1
0.000941177 0.174672 0.00108235 98933.1
0 0.174089 0.0146 98938.1
0 0.174089 0.0128511 98938.1
0 0.174089 0 98938.1
0.0110635 0.173978 0 98938.3
0.0110635 0.173978 0.0146 98938.3
0.0253913 0.173618 0 98938.6
0.0241645 0.174385 0.0131892 98932.4
0.0241645 0.174385 0.00141081 98932.4
0.0253913 0.173618 0.0123119 98938.6
0.0253913 0.173618 0.0146 98938.6
0.0137332 0.174575 0.0134069 98932.8
0.0137332 0.174575 0.00119315 98932.8
0.0234356 0.173652 0 98938.8
0.0234356 0.173652 0.0146 98938.8
0.038087 0.173053 0 98939.1
0.0364887 0.174012 0.012762 98931.6
0.0364887 0.174012 0.00183799 98931.6
0.038087 0.173053 0.0116653 98939.1
0.038087 0.173053 0.0146 98939.1
0.0266923 0.17431 0.0131039 98932.2
0.0266923 0.17431 0.00149612 98932.2
0.0356083 0.173127 0 98939.5
0.0356083 0.173127 0.0146 98939.5
0.0507826 0.172278 0 98939.5
0.0486388 0.173463 0.0121346 98930.5
0.0486388 0.173463 0.0024654 98930.5
0.0507826 0.172278 0.0107784 98939.5
0.0507826 0.172278 0.0146 98939.5
0.0398454 0.173851 0.0125778 98931.1
0.0398454 0.173851 0.00202221 98931.1
0.047598 0.172417 0 98940.3
0.047598 0.172417 0.0146 98940.3
0.0634783 0.171257 0 98940.5
0.0605737 0.172699 0.0112598 98929.8
0.0605737 0.172699 0.00334025 98929.8
0.0634783 0.171257 0.00961102 98940.5
0.0634783 0.171257 0.0146 98940.5
0.0532546 0.173133 0.0117572 98930
0.0532546 0.173133 0.00284278 98930
0.0594253 0.171544 0 98941.5
0.0594253 0.171544 0.0146 98941.5
0.0761739 0.169954 0 98941.6
0.0696326 0.171577 0.00722583 98930.6
0.0761739 0.169954 0.00811989 98941.6
0.0761739 0.169954 0.0146 98941.6
0.0710566 0.170474 0 98942.9
0.0710566 0.170474 0.0146 98942.9
0.0888696 0.168408 0 98940.8
0.0888696 0.168408 0.00635175 98940.8
0.0825219 0.169236 0.00730007 98932.8
0.0888696 0.168408 0.0146 98940.8
0.082486 0.169201 0 98943.3
0.082486 0.169201 0.0146 98943.3
0.101565 0.166614 0 98937
0.101565 0.166614 0.00429915 98937
0.0955317 0.166588 0.0074205 98937.4
0.101565 0.166614 0.0146 98937
0.0937694 0.167782 0 98941.5
0.0937694 0.167782 0.0146 98941.5
0.114261 0.164421 0 98930.7
0.114261 0.164421 0.00179009 98930.7
0.113096 0.164027 0.00133974 98930.9
0.113096 0.164027 0.0132603 98930.9
0.114261 0.164421 0.0146 98930.7
0.104876 0.166185 0 98937
0.103863 0.165167 0.00264296 98936.7
0.103863 0.165167 0.011957 98936.7
0.104876 0.166185 0.0146 98937
0.115646 0.164249 0 98930.6
0.115094 0.163694 0.000958237 98930.7
0.115646 0.164249 0.0146 98930.6
0.115094 0.163694 0.0136418 98930.7
