# U  POINT_DATA 278
# x y z  U_x U_y U_z
0.251252 0.0047424 0.00305992 1.54305 0.00978428 0
0.253202 0.000336101 0.000817864 0.168385 -0.00185788 0
0.251252 0.0047424 0.0115401 1.54305 0.00978428 0
0.253202 0.000336101 0.0137821 0.168385 -0.00185788 0
0.246455 0.00599987 0.0146 1.55683 -0.000521524 0
0.246455 0.00599987 0.00602294 1.55683 -0.000521524 0
0.246455 0.00599987 0 1.55683 -0.000521524 0
0.252708 0 0 0 0 0
0.252708 0 0.0132137 0 0 0
0.252708 0 0.0146 0 0 0
0.249152 0.00374978 0 0.982455 0.0180071 0
0.249152 0.00374978 0.0146 0.982455 0.0180071 0
0.241217 0.00878099 0 1.63977 -0.00526989 0
0.238627 0.0107755 0.0116211 1.66635 -0.00585459 0
0.238627 0.0107755 0.00297894 1.66635 -0.00585459 0
0.241217 0.00878099 0.00676753 1.63977 -0.00526989 0
0.241217 0.00878099 0.0146 1.63977 -0.00526989 0
0.235646 0.0119997 0.0146 1.64747 -0.0170035 0
0.235646 0.0119997 0.00819249 1.64747 -0.0170035 0
0.235646 0.0119997 0 1.64747 -0.0170035 0
0.237199 0.0101009 0 1.66825 0.00152286 0
0.237199 0.0101009 0.0146 1.66825 0.00152286 0
0.244662 0.00762756 0 1.58494 0.0336223 0
0.243071 0.00687571 0.00213126 1.57798 -0.0200229 0
0.244662 0.00762756 0.0146 1.58494 0.0336223 0
0.243071 0.00687571 0.0124687 1.57798 -0.0200229 0
0.228522 0.0164846 0 1.60191 -0.113973 0
0.227491 0.0175123 0.0134141 1.60648 -0.124152 0
0.227491 0.0175123 0.0011859 1.60648 -0.124152 0
0.228522 0.0164846 0.0109135 1.60191 -0.113973 0
0.228522 0.0164846 0.0146 1.60191 -0.113973 0
0.22583 0.0179996 0.0146 1.59249 -0.129397 0
0.22583 0.0179996 0.0115041 1.59249 -0.129397 0
0.22583 0.0179996 0 1.59249 -0.129397 0
0.226553 0.0170694 0 1.60363 -0.122193 0
0.226553 0.0170694 0.0146 1.60363 -0.122193 0
0.233418 0.0143136 0 1.62575 -0.0156679 0
0.232149 0.0137139 0.0073 1.53515 -0.072471 0
0.233418 0.0143136 0.0146 1.62575 -0.0156679 0
0.21668 0.0235961 0.0136184 1.48413 -0.197475 0
0.216416 0.0239995 0.0146 1.49053 -0.205344 0
0.21668 0.0235961 0.000981646 1.48413 -0.197475 0
0.216416 0.0239995 0.000678845 1.49053 -0.205344 0
0.216416 0.0239995 0 1.49053 -0.205344 0
0.220448 0.020184 0.0073 1.48548 -0.12806 0
0.221624 0.0207398 0 1.54968 -0.136053 0
0.221624 0.0207398 0.0146 1.54968 -0.136053 0
0.215826 0.024389 0 1.48846 -0.208989 0
0.211888 0.0281384 0.0073 1.45699 -0.234399 0
0.215826 0.024389 0.000947915 1.48846 -0.208989 0
0.215826 0.024389 0.0146 1.48846 -0.208989 0
0.208317 0.0299994 0.0146 1.42749 -0.271191 0
0.208317 0.0299994 0.00596449 1.42749 -0.271191 0
0.208317 0.0299994 0 1.42749 -0.271191 0
0.210734 0.027593 0 1.48724 -0.223454 0
0.210734 0.027593 0.0146 1.48724 -0.223454 0
0.216308 0.0242273 0 1.4862 -0.200631 0
0.216079 0.0241189 0.000290649 1.48842 -0.211392 0
0.216308 0.0242273 0.0146 1.4862 -0.200631 0
0.216079 0.0241189 0.0143094 1.48842 -0.211392 0
0.20313 0.0341755 0 1.33882 -0.372384 0
0.202076 0.0355009 0.0133874 1.32881 -0.396238 0
0.202076 0.0355009 0.00121265 1.32881 -0.396238 0
0.20313 0.0341755 0.0101621 1.33882 -0.372384 0
0.20313 0.0341755 0.0146 1.33882 -0.372384 0
0.200766 0.0359992 0.0146 1.31171 -0.406448 0
0.200766 0.0359992 0.0118812 1.31171 -0.406448 0
0.200766 0.0359992 0 1.31171 -0.406448 0
0.201235 0.0351035 0 1.32551 -0.392875 0
0.201235 0.0351035 0.0146 1.32551 -0.392875 0
0.206926 0.031793 0 1.39099 -0.269754 0
0.205512 0.0311247 0.00273848 1.34345 -0.313017 0
0.206926 0.031793 0.0146 1.39099 -0.269754 0
0.205512 0.0311247 0.0118615 1.34345 -0.313017 0
0.198445 0.0386477 0.00701493 1.23428 -0.447498 0
0.19534 0.0419991 0.0146 1.2059 -0.481279 0
0.19534 0.0419991 0.00564065 1.2059 -0.481279 0
0.19534 0.0419991 0 1.2059 -0.481279 0
0.19739 0.0392861 0 1.27054 -0.419872 0
0.19739 0.0392861 0.0146 1.27054 -0.419872 0
0.190506 0.0479655 0.0145185 1.05751 -0.613451 0
0.190527 0.047999 0.0146 1.05777 -0.611963 0
0.190506 0.0479655 8.15405e-05 1.05751 -0.613451 0
0.190527 0.047999 0.000106299 1.05777 -0.611963 0
0.190527 0.047999 0 1.05777 -0.611963 0
0.193024 0.0432226 0.00297718 1.12589 -0.546226 0
0.194358 0.043853 0 1.14863 -0.471847 0
0.194358 0.043853 0.0146 1.14863 -0.471847 0
0.193024 0.0432226 0.0116228 1.12589 -0.546226 0
0.190435 0.0481611 0 1.05546 -0.614197 0
0.187057 0.0573656 0.0073 0.962134 -0.644727 0
0.190435 0.0481611 0.000185449 1.05546 -0.614197 0
0.190435 0.0481611 0.0146 1.05546 -0.614197 0
0.184059 0.0607609 0.0146 0.914838 -0.667919 0
0.184059 0.0607609 0.00726802 0.914838 -0.667919 0
0.184059 0.0607609 0 0.914838 -0.667919 0
0.185847 0.0561488 0 0.964064 -0.623187 0
0.185847 0.0561488 0.0146 0.964064 -0.623187 0
0.190516 0.0480808 0 1.0558 -0.611343 0
0.190479 0.0480435 5.09267e-05 1.05681 -0.614212 0
0.190516 0.0480808 0.0146 1.0558 -0.611343 0
0.190479 0.0480435 0.0145491 1.05681 -0.614212 0
0.178045 0.0732154 0.0142483 0.748839 -0.799156 0
0.178101 0.0735228 0.0146 0.746093 -0.792966 0
0.178045 0.0732154 0.000351705 0.748839 -0.799156 0
0.178101 0.0735228 0.000415586 0.746093 -0.792966 0
0.178101 0.0735228 0 0.746093 -0.792966 0
0.180897 0.0639349 0.00363118 0.848785 -0.732698 0
0.182363 0.0654091 0 0.840128 -0.63588 0
0.182363 0.0654091 0.0146 0.840128 -0.63588 0
0.180897 0.0639349 0.0109688 0.848785 -0.732698 0
0.177739 0.0742854 0 0.737019 -0.802869 0
0.174907 0.0834378 0.011343 0.633744 -0.831867 0
0.174907 0.0834378 0.00325697 0.633744 -0.831867 0
0.177739 0.0742854 0.000872418 0.737019 -0.802869 0
0.177739 0.0742854 0.0146 0.737019 -0.802869 0
0.172654 0.0862847 0.0146 0.60339 -0.830653 0
0.172654 0.0862847 0.00875204 0.60339 -0.830653 0
0.172654 0.0862847 0 0.60339 -0.830653 0
0.173812 0.0823369 0 0.641527 -0.809906 0
0.173812 0.0823369 0.0146 0.641527 -0.809906 0
0.178054 0.0738396 0 0.738859 -0.789754 0
0.177911 0.0736951 0.00019713 0.743841 -0.802322 0
0.178054 0.0738396 0.0146 0.738859 -0.789754 0
0.177911 0.0736951 0.0144029 0.743841 -0.802322 0
0.169602 0.0931556 0.00748682 0.531154 -0.871852 0
0.168569 0.0990467 0.0146 0.479005 -0.833648 0
0.168569 0.0990467 0.00405378 0.479005 -0.833648 0
0.168569 0.0990467 0 0.479005 -0.833648 0
0.170814 0.0920852 0 0.541459 -0.78114 0
0.170814 0.0920852 0.0146 0.541459 -0.78114 0
0.165043 0.110161 0 0.384191 -0.899715 0
0.164767 0.111531 0.0142823 0.372577 -0.902486 0
0.164767 0.111531 0.000317721 0.372577 -0.902486 0
0.165043 0.110161 0.0127146 0.384191 -0.899715 0
0.165043 0.110161 0.0146 0.384191 -0.899715 0
0.164471 0.111809 0.0146 0.370561 -0.901006 0
0.164471 0.111809 0.0139414 0.370561 -0.901006 0
0.164471 0.111809 0 0.370561 -0.901006 0
0.164541 0.111304 0 0.374436 -0.899705 0
0.164541 0.111304 0.0146 0.374436 -0.899705 0
0.168005 0.102023 0 0.448776 -0.800226 0
0.166902 0.100915 0.00213727 0.462048 -0.883751 0
0.168005 0.102023 0.0146 0.448776 -0.800226 0
0.166902 0.100915 0.0124627 0.462048 -0.883751 0
0.162661 0.122176 0.00273949 0.283032 -0.912813 0
0.164576 0.112278 0.000537415 0.366292 -0.903736 0
0.162661 0.122176 0.0118605 0.283032 -0.912813 0
0.164576 0.112278 0.0140626 0.366292 -0.903736 0
0.161081 0.124571 0.0146 0.268537 -0.903046 0
0.161081 0.124571 0.0100431 0.268537 -0.903046 0
0.161081 0.124571 0 0.268537 -0.903046 0
0.161703 0.121213 0 0.292986 -0.898514 0
0.161703 0.121213 0.0146 0.292986 -0.898514 0
0.160537 0.130617 0.0071725 0.219181 -0.912784 0
0.158607 0.137332 0.0146 0.174522 -0.878894 0
0.158607 0.137332 0.00719783 0.174522 -0.878894 0
0.158607 0.137332 0 0.174522 -0.878894 0
0.159569 0.13183 0 0.206385 -0.876238 0
0.159569 0.13183 0.0146 0.206385 -0.876238 0
0.152748 0.149692 0.0141395 0.132152 -0.855019 0
0.152576 0.150094 0.0146 0.130504 -0.851034 0
0.152748 0.149692 0.000460466 0.132152 -0.855019 0
0.152576 0.150094 0.000261832 0.130504 -0.851034 0
0.152576 0.150094 0 0.130504 -0.851034 0
0.156876 0.141884 0.0073 0.161295 -0.892836 0
0.157463 0.142474 0 0.15581 -0.844232 0
0.157463 0.142474 0.0146 0.15581 -0.844232 0
0.126957 0.16149 0 0.087998 -0.700784 0
0.126247 0.162143 0.0137844 0.0849798 -0.697416 0
0.126247 0.162143 0.000815572 0.0849798 -0.697416 0
0.126957 0.16149 0.0130367 0.087998 -0.700784 0
0.126957 0.16149 0.0146 0.087998 -0.700784 0
0.121035 0.162856 0.0146 0.0798757 -0.674896 0
0.121035 0.162856 0.00779007 0.0798757 -0.674896 0
0.121035 0.162856 0 0.0798757 -0.674896 0
0.125727 0.161621 0 0.0867225 -0.695389 0
0.125727 0.161621 0.0146 0.0867225 -0.695389 0
0.139652 0.158129 0 0.103302 -0.776576 0
0.137054 0.160244 0.0116118 0.0958128 -0.758787 0
0.137054 0.160244 0.00298816 0.0958128 -0.758787 0
0.139652 0.158129 0.0091921 0.103302 -0.776576 0
0.139652 0.158129 0.0146 0.103302 -0.776576 0
0.127961 0.161847 0.0134453 0.0866741 -0.705145 0
0.127961 0.161847 0.00115473 0.0866741 -0.705145 0
0.135759 0.158943 0 0.101193 -0.755627 0
0.135759 0.158943 0.0146 0.101193 -0.755627 0
0.152348 0.150336 0 0.130324 -0.851557 0
0.152348 0.150336 0.000276283 0.130324 -0.851557 0
0.150524 0.151928 0.00209738 0.120813 -0.839152 0
0.150524 0.151928 0.0125026 0.120813 -0.839152 0
0.152348 0.150336 0.0146 0.130324 -0.851557 0
0.145694 0.156168 0 0.1177 -0.8088 0
0.145682 0.156156 0.0073 0.0976724 -0.806458 0
0.145694 0.156168 0.0146 0.1177 -0.8088 0
0.152528 0.150276 0 0.130659 -0.850369 0
0.152463 0.15021 0.000132544 0.130721 -0.85205 0
0.152528 0.150276 0.0146 0.130659 -0.850369 0
0.152463 0.15021 0.0144675 0.130721 -0.85205 0
0.0126957 0.173968 0 0.00763001 -0.448919 0
0.011688 0.174605 0.0134412 0.00681436 -0.448537 0
0.011688 0.174605 0.00115884 0.00681436 -0.448537 0
0.0126957 0.173968 0.012712 0.00763001 -0.448919 0
0.0126957 0.173968 0.0146 0.00763001 -0.448919 0
0.000941177 0.174672 0.0135176 0.000608902 -0.066734 0
0.000941177 0.174672 0.00108235 0.000608902 -0.066734 0
0 0.174089 0.0146 0 0 0
0 0.174089 0.0128511 0 0 0
0 0.174089 0 0 0 0
0.0110635 0.173978 0 0.00638355 -0.390618 0
0.0110635 0.173978 0.0146 0.00638355 -0.390618 0
0.0253913 0.173618 0 0.0151392 -0.455822 0
0.0241645 0.174385 0.0131892 0.0138844 -0.45494 0
0.0241645 0.174385 0.00141081 0.0138844 -0.45494 0
0.0253913 0.173618 0.0123119 0.0151392 -0.455822 0
0.0253913 0.173618 0.0146 0.0151392 -0.455822 0
0.0137332 0.174575 0.0134069 0.00803926 -0.449285 0
0.0137332 0.174575 0.00119315 0.00803926 -0.449285 0
0.0234356 0.173652 0 0.013681 -0.45478 0
0.0234356 0.173652 0.0146 0.013681 -0.45478 0
0.038087 0.173053 0 0.0229849 -0.467176 0
0.0364887 0.174012 0.012762 0.021064 -0.465386 0
0.0364887 0.174012 0.00183799 0.021064 -0.465386 0
0.038087 0.173053 0.0116653 0.0229849 -0.467176 0
0.038087 0.173053 0.0146 0.0229849 -0.467176 0
0.0266923 0.17431 0.0131039 0.0154135 -0.456638 0
0.0266923 0.17431 0.00149612 0.0154135 -0.456638 0
0.0356083 0.173127 0 0.0211493 -0.46503 0
0.0356083 0.173127 0.0146 0.0211493 -0.46503 0
0.0507826 0.172278 0 0.0303745 -0.483319 0
0.0486388 0.173463 0.0121346 0.0275737 -0.479942 0
0.0486388 0.173463 0.0024654 0.0275737 -0.479942 0
0.0507826 0.172278 0.0107784 0.0303745 -0.483319 0
0.0507826 0.172278 0.0146 0.0303745 -0.483319 0
0.0398454 0.173851 0.0125778 0.0230356 -0.46878 0
0.0398454 0.173851 0.00202221 0.0230356 -0.46878 0
0.047598 0.172417 0 0.0281057 -0.479405 0
0.047598 0.172417 0.0146 0.0281057 -0.479405 0
0.0634783 0.171257 0 0.0369337 -0.504561 0
0.0605737 0.172699 0.0112598 0.0328933 -0.498449 0
0.0605737 0.172699 0.00334025 0.0328933 -0.498449 0
0.0634783 0.171257 0.00961102 0.0369337 -0.504561 0
0.0634783 0.171257 0.0146 0.0369337 -0.504561 0
0.0532546 0.173133 0.0117572 0.0299824 -0.48623 0
0.0532546 0.173133 0.00284278 0.0299824 -0.48623 0
0.0594253 0.171544 0 0.0341138 -0.498016 0
0.0594253 0.171544 0.0146 0.0341138 -0.498016 0
0.0761739 0.169954 0 0.0437754 -0.531275 0
0.0696326 0.171577 0.00722583 0.0372999 -0.51492 0
0.0761739 0.169954 0.00811989 0.0437754 -0.531275 0
0.0761739 0.169954 0.0146 0.0437754 -0.531275 0
0.0710566 0.170474 0 0.0400524 -0.520968 0
0.0710566 0.170474 0.0146 0.0400524 -0.520968 0
0.0888696 0.168408 0 0.0515836 -0.564482 0
0.0888696 0.168408 0.00635175 0.0515836 -0.564482 0
0.0825219 0.169236 0.00730007 0.045141 -0.541158 0
0.0888696 0.168408 0.0146 0.0515836 -0.564482 0
0.082486 0.169201 0 0.0466546 -0.549013 0
0.082486 0.169201 0.0146 0.0466546 -0.549013 0
0.101565 0.166614 0 0.0641461 -0.604227 0
0.101565 0.166614 0.00429915 0.0641461 -0.604227 0
0.0955317 0.166588 0.0074205 0.0567471 -0.578431 0
0.101565 0.166614 0.0146 0.0641461 -0.604227 0
0.0937694 0.167782 0 0.0587097 -0.58212 0
0.0937694 0.167782 0.0146 0.0587097 -0.58212 0
0.114261 0.164421 0 0.0755304 -0.649916 0
0.114261 0.164421 0.00179009 0.0755304 -0.649916 0
0.113096 0.164027 0.00133974 0.0716835 -0.640464 0
0.113096 0.164027 0.0132603 0.0716835 -0.640464 0
0.114261 0.164421 0.0146 0.0755304 -0.649916 0
0.104876 0.166185 0 0.0711653 -0.620572 0
0.103863 0.165167 0.00264296 0.0641741 -0.605944 0
0.103863 0.165167 0.011957 0.0641741 -0.605944 0
0.104876 0.166185 0.0146 0.0711653 -0.620572 0
0.115646 0.164249 0 0.0789336 -0.658132 0
0.115094 0.163694 0.000958237 0.0736877 -0.648654 0
0.115646 0.164249 0.0146 0.0789336 -0.658132 0
0.115094 0.163694 0.0136418 0.0736877 -0.648654 0
