# p  POINT_DATA 770
# x y z  p
0.209478 0.0658623 0 98926.4
0.208793 0.0664535 0.013025 98911.1
0.208793 0.0664535 0.001575 98911.1
0.209478 0.0658623 0.0116722 98926.4
0.209478 0.0658623 0.0146 98926.4
0.20517 0.0671419 0.0146 98918.3
0.20517 0.0671419 0.00469187 98918.3
0.20517 0.0671419 0 98918.3
0.208354 0.0660117 0 98929.1
0.208354 0.0660117 0.0146 98929.1
0.215826 0.0647801 0 98933.1
0.214325 0.0656325 0.0111464 98902.3
0.214325 0.0656325 0.00345355 98902.3
0.215826 0.0647801 0.00919608 98933.1
0.215826 0.0647801 0.0146 98933.1
0.210501 0.0661133 0.0122467 98906.2
0.210501 0.0661133 0.00235332 98906.2
0.213787 0.0650917 0 98933.7
0.213787 0.0650917 0.0146 98933.7
0.222174 0.0638644 0 98940.9
0.222174 0.0638644 0.00710097 98940.9
0.218918 0.0645979 0.00723707 98900.5
0.222174 0.0638644 0.0146 98940.9
0.219332 0.0642854 0 98939.3
0.219332 0.0642854 0.0146 98939.3
0.228522 0.0628552 0 98948.4
0.228522 0.0628552 0.00479187 98948.4
0.225475 0.0630709 0.00739757 98920.9
0.228522 0.0628552 0.0146 98948.4
0.224856 0.0634565 0 98945.9
0.224856 0.0634565 0.0146 98945.9
0.23487 0.0622034 0 98952.9
0.23487 0.0622034 0.00330046 98952.9
0.233879 0.0617567 0.00227856 98947.1
0.233879 0.0617567 0.0123214 98947.1
0.23487 0.0622034 0.0146 98952.9
0.230407 0.0626561 0 98950.7
0.229779 0.0620252 0.00289279 98943.6
0.229779 0.0620252 0.0117072 98943.6
0.230407 0.0626561 0.0146 98950.7
0.241217 0.0623929 0 98959.9
0.241217 0.0623929 0.00373407 98959.9
0.240226 0.0617573 0.00227983 98955.3
0.240226 0.0617573 0.0123202 98955.3
0.241217 0.0623929 0.0146 98959.9
0.236336 0.0622345 0 98952.6
0.235771 0.0616673 0.00207395 98949
0.235771 0.0616673 0.0125261 98949
0.236336 0.0622345 0.0146 98952.6
0.247565 0.0633223 0 98969.1
0.247565 0.0633223 0.00586072 98969.1
0.245993 0.0623413 0.00361617 98957.7
0.245993 0.0623413 0.0109838 98957.7
0.247565 0.0633223 0.0146 98969.1
0.243118 0.0626714 0 98956.9
0.242439 0.0619887 0.00280922 98949.5
0.242439 0.0619887 0.0117908 98949.5
0.243118 0.0626714 0.0146 98956.9
0.253913 0.0652595 0 98963.9
0.253913 0.0652595 0.0102931 98963.9
0.250766 0.0640267 0.0073203 98907.4
0.253913 0.0652595 0.0146 98963.9
0.251298 0.0645131 0 98957.5
0.251298 0.0645131 0.0146 98957.5
0.254848 0.0662024 0.0124504 98931.2
0.254848 0.0662024 0.00214959 98931.2
0.257835 0.0671419 0.0146 98942.2
0.257835 0.0671419 0.00902011 98942.2
0.257835 0.0671419 0 98942.2
0.190435 0.071845 0 98922.2
0.18956 0.0726433 0.0125876 98908.9
0.18956 0.0726433 0.00201236 98908.9
0.190435 0.071845 0.010761 98922.2
0.190435 0.071845 0.0146 98922.2
0.186168 0.0735228 0.0146 98915
0.186168 0.0735228 0.00478748 98915
0.186168 0.0735228 0 98915
0.189034 0.0721144 0 98927.1
0.189034 0.0721144 0.0146 98927.1
0.196783 0.0700169 0 98925
0.196783 0.0700169 0.00657833 98925
0.193341 0.0714753 0.00709512 98902.6
0.196783 0.0700169 0.0146 98925
0.194062 0.0707883 0 98930.1
0.194062 0.0707883 0.0146 98930.1
0.20313 0.0677922 0 98921.1
0.20313 0.0677922 0.00148803 98921.1
0.202483 0.0677925 0.00148868 98918.7
0.202483 0.0677925 0.0131113 98918.7
0.20313 0.0677922 0.0146 98921.1
0.199012 0.0693831 0 98929.2
0.198528 0.0688965 0.0073 98920.3
0.199012 0.0693831 0.0146 98929.2
0.203681 0.0676952 0 98921.4
0.203425 0.0674378 0.000677093 98921.3
0.203681 0.0676952 0.0146 98921.4
0.203425 0.0674378 0.0139229 98921.3
0.260261 0.0683479 0 98946.7
0.260261 0.0683479 0.00275946 98946.7
0.259703 0.0677025 0.00128284 98947.2
0.259703 0.0677025 0.0133172 98947.2
0.260261 0.0683479 0.0146 98946.7
0.266609 0.0718601 0 98939.6
0.266609 0.0718601 0.0107957 98939.6
0.262978 0.0692403 0.00694987 98929.3
0.266609 0.0718601 0.0146 98939.6
0.262965 0.0698604 0 98938.3
0.262965 0.0698604 0.0146 98938.3
0.267314 0.0728134 0.0129768 98920.2
0.267314 0.0728134 0.0016232 98920.2
0.268696 0.0735228 0.0146 98920.9
0.268696 0.0735228 0.0048003 98920.9
0.268696 0.0735228 0 98920.9
0.171391 0.0798962 0 98911.2
0.171388 0.0799002 0.0145919 98911.2
0.171388 0.0799002 8.10031e-06 98911.2
0.171391 0.0798962 0.0145826 98911.2
0.171391 0.0798962 0.0146 98911.2
0.171378 0.0799038 0.0146 98911.2
0.171378 0.0799038 0.0145691 98911.2
0.171378 0.0799038 0 98911.2
0.171385 0.0798972 0 98911.3
0.171385 0.0798972 0.0146 98911.3
0.177739 0.077094 0 98919.5
0.17623 0.0783864 0.0111282 98903
0.17623 0.0783864 0.00347181 98903
0.177739 0.077094 0.00817113 98919.5
0.177739 0.077094 0.0146 98919.5
0.171398 0.0798971 0.0145846 98911.2
0.171398 0.0798971 1.53683e-05 98911.2
0.175587 0.0777399 0 98926.4
0.175587 0.0777399 0.0146 98926.4
0.184087 0.0744046 0 98917
0.184087 0.0744046 0.00201764 98917
0.182933 0.0746831 0.00265487 98912.5
0.182933 0.0746831 0.0119451 98912.5
0.184087 0.0744046 0.0146 98917
0.18037 0.0761672 0 98925
0.180012 0.0758075 0.0073 98912
0.18037 0.0761672 0.0146 98925
0.184809 0.0742484 0 98917.5
0.184473 0.0739107 0.000887416 98917.4
0.184809 0.0742484 0.0146 98917.5
0.184473 0.0739107 0.0137126 98917.4
0.272957 0.0770867 0 98915.8
0.272957 0.0770867 0.00815439 98915.8
0.271535 0.0749517 0.00326926 98920.1
0.271535 0.0749517 0.0113307 98920.1
0.272957 0.0770867 0.0146 98915.8
0.274089 0.0787651 0.0119946 98899.7
0.274089 0.0787651 0.00260544 98899.7
0.275821 0.0799038 0.0146 98899.1
0.275821 0.0799038 0.00658832 98899.1
0.275821 0.0799038 0 98899.1
0.158696 0.0860214 0 98910.4
0.158575 0.0861638 0.0143233 98909.1
0.158575 0.0861638 0.000276659 98909.1
0.158696 0.0860214 0.0139974 98910.4
0.158696 0.0860214 0.0146 98910.4
0.158242 0.0862847 0.0146 98909.5
0.158242 0.0862847 0.0135555 98909.5
0.158242 0.0862847 0 98909.5
0.158473 0.0860609 0 98911.4
0.158473 0.0860609 0.0146 98911.4
0.165043 0.0830197 0 98916.2
0.165043 0.0830197 0.00712947 98916.2
0.163266 0.0844985 0.0073 98901.5
0.165043 0.0830197 0.0146 98916.2
0.158958 0.086021 0.0139965 98907.7
0.158958 0.086021 0.000603452 98907.7
0.162644 0.0838728 0 98923.4
0.162644 0.0838728 0.0146 98923.4
0.167329 0.0822012 0 98920
0.166782 0.0816511 0.0073 98913.9
0.167329 0.0822012 0.0146 98920
0.279304 0.0838122 0 98894.4
0.279304 0.0838122 0.00894278 98894.4
0.277929 0.081286 0.00316249 98897.9
0.277929 0.081286 0.0114375 98897.9
0.279304 0.0838122 0.0146 98894.4
0.280185 0.0853992 0.0125738 98887.9
0.280185 0.0853992 0.00202624 98887.9
0.281413 0.0862847 0.0146 98886.7
0.281413 0.0862847 0.00485017 98886.7
0.281413 0.0862847 0 98886.7
0.146 0.0922813 0 98909.1
0.145823 0.0924882 0.0141938 98907.3
0.145823 0.0924882 0.000406201 98907.3
0.146 0.0922813 0.0137205 98909.1
0.146 0.0922813 0.0146 98909.1
0.145311 0.0926657 0.0146 98907.9
0.145311 0.0926657 0.0130153 98907.9
0.145311 0.0926657 0 98907.9
0.145676 0.09234 0 98910.4
0.145676 0.09234 0.0146 98910.4
0.152348 0.0892951 0 98913.5
0.152348 0.0892951 0.00688774 98913.5
0.150511 0.090819 0.0073 98900.6
0.152348 0.0892951 0.0146 98913.5
0.146389 0.0922752 0.0137064 98905.7
0.146389 0.0922752 0.000893579 98905.7
0.149891 0.0901958 0 98920.1
0.149891 0.0901958 0.0146 98920.1
0.154562 0.0885104 0 98916.5
0.15398 0.087925 0.0073 98912.1
0.154562 0.0885104 0.0146 98916.5
0.285652 0.0922118 0 98881.6
0.285652 0.0922118 0.0135615 98881.6
0.283593 0.0883546 0.0073 98886.1
0.285652 0.0922118 0.0146 98881.6
0.285803 0.0925139 0.0142525 98881
0.285803 0.0925139 0.000347461 98881
0.285992 0.0926657 0.0146 98880.9
0.285992 0.0926657 0.000781004 98880.9
0.285992 0.0926657 0 98880.9
0.133304 0.0982104 0 98909.1
0.13291 0.0986501 0.0136926 98905.7
0.13291 0.0986501 0.000907405 98905.7
0.133304 0.0982104 0.0126866 98909.1
0.133304 0.0982104 0.0146 98909.1
0.131609 0.0990467 0.0146 98907
0.131609 0.0990467 0.0107006 98907
0.131609 0.0990467 0 98907
0.132607 0.0983458 0 98911.3
0.132607 0.0983458 0.0146 98911.3
0.139652 0.0954846 0 98911.5
0.139652 0.0954846 0.00644977 98911.5
0.137611 0.0969947 0.0073 98899.9
0.139652 0.0954846 0.0146 98911.5
0.134199 0.0981474 0.0125424 98902.9
0.134199 0.0981474 0.00205762 98902.9
0.137055 0.0964358 0 98917.2
0.137055 0.0964358 0.0146 98917.2
0.141753 0.0947777 0 98913.7
0.141166 0.0941872 0.00348132 98910.7
0.141753 0.0947777 0.0146 98913.7
0.141166 0.0941872 0.0111187 98910.7
0.287919 0.0967682 0.0073 98880.2
0.289956 0.0990467 0.00989952 98879.5
0.289956 0.0990467 0.0146 98879.5
0.289956 0.0990467 0 98879.5
0.286144 0.0931605 0.00113212 98880.9
0.286503 0.0935208 0 98880.8
0.286144 0.0931605 0.0134679 98880.9
0.286503 0.0935208 0.0146 98880.8
0.120609 0.103621 0 98909.9
0.119698 0.104512 0.0125044 98903.3
0.119698 0.104512 0.00209557 98903.3
0.120609 0.103621 0.0104653 98909.9
0.120609 0.103621 0.0146 98909.9
0.116146 0.105428 0.0146 98906.2
0.116146 0.105428 0.00433575 98906.2
0.116146 0.105428 0 98906.2
0.119144 0.103955 0 98913.2
0.119144 0.103955 0.0146 98913.2
0.126957 0.101207 0 98909.8
0.126957 0.101207 0.00494401 98909.8
0.12361 0.102742 0.00716734 98899.9
0.126957 0.101207 0.0146 98909.8
0.123909 0.102364 0 98914.7
0.123909 0.102364 0.0146 98914.7
0.128636 0.100734 0 98910.9
0.128063 0.100159 0.00254467 98909.6
0.128636 0.100734 0.0146 98910.9
0.128063 0.100159 0.0120553 98909.6
0.292 0.101679 0 98880
0.292 0.101679 0.00602226 98880
0.291049 0.100002 0.00218649 98879.6
0.291049 0.100002 0.0124135 98879.6
0.292 0.101679 0.0146 98880
0.101565 0.110473 0 98908.2
0.100872 0.111112 0.0130055 98903.3
0.100872 0.111112 0.00159455 98903.3
0.101565 0.110473 0.011545 98908.2
0.101565 0.110473 0.0146 98908.2
0.0975365 0.111809 0.0146 98905.3
0.0975365 0.111809 0.00533406 98905.3
0.0975365 0.111809 0 98905.3
0.10043 0.110668 0 98910.1
0.10043 0.110668 0.0146 98910.1
0.107913 0.108498 0 98909.6
0.107913 0.108498 0.00702431 98909.6
0.105864 0.109749 0.0073 98900.2
0.107913 0.108498 0.0146 98909.6
0.102877 0.11049 0.0115835 98901.3
0.102877 0.11049 0.00301654 98901.3
0.105334 0.109216 0 98912.9
0.105334 0.109216 0.0146 98912.9
0.114261 0.106236 0 98907.1
0.114261 0.106236 0.00185019 98907.1
0.113434 0.106259 0.00190148 98906
0.113434 0.106259 0.0126985 98906
0.114261 0.106236 0.0146 98907.1
0.110295 0.107823 0 98911.4
0.109796 0.10732 0.0073 98907.5
0.110295 0.107823 0.0146 98911.4
0.114939 0.106109 0 98907.2
0.114646 0.105814 0.000884757 98907.1
0.114939 0.106109 0.0146 98907.2
0.114646 0.105814 0.0137152 98907.1
0.0761739 0.117452 0 98906.3
0.0757811 0.117795 0.0136964 98903.5
0.0757811 0.117795 0.000903583 98903.5
0.0761739 0.117452 0.0129135 98906.3
0.0761739 0.117452 0.0146 98906.3
0.0731004 0.11819 0.0146 98904.6
0.0731004 0.11819 0.00753089 98904.6
0.0731004 0.11819 0 98904.6
0.0755151 0.117527 0 98907.1
0.0755151 0.117527 0.0146 98907.1
0.0825217 0.11596 0 98908.7
0.0812161 0.116877 0.0115969 98901.4
0.0812161 0.116877 0.00300306 98901.4
0.0825217 0.11596 0.00949897 98908.7
0.0825217 0.11596 0.0146 98908.7
0.0767363 0.117624 0.0133065 98902.7
0.0767363 0.117624 0.00129348 98902.7
0.0806321 0.11629 0 98910.5
0.0806321 0.11629 0.0146 98910.5
0.0888696 0.114399 0 98908.8
0.0888696 0.114399 0.00592779 98908.8
0.0855991 0.11543 0.00722599 98900.3
0.0888696 0.114399 0.0146 98908.8
0.0858433 0.115148 0 98911.3
0.0858433 0.115148 0.0146 98911.3
0.0952174 0.112608 0 98906.3
0.0952174 0.112608 0.00182968 98906.3
0.094512 0.112518 0.0016225 98905.6
0.094512 0.112518 0.0129775 98905.6
0.0952174 0.112608 0.0146 98906.3
0.0909893 0.113939 0 98909.8
0.0904565 0.113404 0.00364998 98907.4
0.0904565 0.113404 0.01095 98907.4
0.0909893 0.113939 0.0146 98909.8
0.0958998 0.112495 0 98906.4
0.0956221 0.112215 0.000930792 98906.3
0.0958998 0.112495 0.0146 98906.4
0.0956221 0.112215 0.0136692 98906.3
0.0317391 0.124534 0 98904
0.0317187 0.12455 0.0145529 98903.9
0.0317187 0.12455 4.7095e-05 98903.9
0.0317391 0.124534 0.0145153 98904
0.0317391 0.124534 0.0146 98904
0.031343 0.124571 0.0146 98903.9
0.031343 0.124571 0.0136888 98903.9
0.031343 0.124571 0 98903.9
0.0317038 0.124535 0 98904
0.0317038 0.124535 0.0146 98904
0.038087 0.123845 0 98905.8
0.0376703 0.124152 0.0136418 98902.9
0.0376703 0.124152 0.000958241 98902.9
0.038087 0.123845 0.0129398 98905.8
0.038087 0.123845 0.0146 98905.8
0.0317622 0.124547 0.0145469 98903.9
0.0317622 0.124547 5.30744e-05 98903.9
0.0374048 0.123885 0 98906.1
0.0374048 0.123885 0.0146 98906.1
0.0444348 0.123096 0 98907
0.0435394 0.12367 0.0125406 98901.8
0.0435394 0.12367 0.00205939 98901.8
0.0444348 0.123096 0.011226 98907
0.0444348 0.123096 0.0146 98907
0.0385813 0.124074 0.013463 98902.6
0.0385813 0.124074 0.00113696 98902.6
0.0430723 0.123201 0 98907.7
0.0430723 0.123201 0.0146 98907.7
0.0507826 0.12226 0 98908
0.0492733 0.123053 0.0111287 98900.7
0.0492733 0.123053 0.00347131 98900.7
0.0507826 0.12226 0.00931304 98908
0.0507826 0.12226 0.0146 98908
0.0455764 0.123423 0.0119743 98901.1
0.0455764 0.123423 0.00262565 98901.1
0.0487091 0.122486 0 98909
0.0487091 0.122486 0.0146 98909
0.0571304 0.121301 0 98908.5
0.0571304 0.121301 0.00711998 98908.5
0.0538552 0.122152 0.00722232 98900.4
0.0571304 0.121301 0.0146 98908.5
0.0542987 0.121724 0 98909.7
0.0542987 0.121724 0.0146 98909.7
0.0634783 0.120223 0 98907.7
0.0634783 0.120223 0.00465193 98907.7
0.0604568 0.120383 0.00741689 98904.4
0.0634783 0.120223 0.0146 98907.7
0.0598157 0.120889 0 98909.5
0.0598157 0.120889 0.0146 98909.5
0.0698261 0.118977 0 98905.7
0.0698261 0.118977 0.00180126 98905.7
0.069215 0.118804 0.00140554 98905.3
0.069215 0.118804 0.0131945 98905.3
0.0698261 0.118977 0.0146 98905.7
0.0652476 0.119968 0 98908.1
0.0647341 0.119452 0.0028885 98906.8
0.0647341 0.119452 0.0117115 98906.8
0.0652476 0.119968 0.0146 98908.1
0.0705217 0.118889 0 98905.8
0.0702503 0.118616 0.000975588 98905.7
0.0705217 0.118889 0.0146 98905.8
0.0702503 0.118616 0.0136244 98905.7
0.00634783 0.126012 0 98906.1
0.00634783 0.126012 0.00329807 98906.1
0.0053362 0.125587 0.00232674 98905.4
0.0053362 0.125587 0.0122733 98905.4
0.00634783 0.126012 0.0146 98906.1
0.00104929 0.125625 0.0121866 98905.4
0 0.126087 0.0146 98906.1
0.00104929 0.125625 0.00241338 98905.4
0 0.126087 0.00346877 98906.1
0 0.126087 0 98906.1
0.00149492 0.126073 0 98906.1
0.00149492 0.126073 0.0146 98906.1
0.0126957 0.125819 0 98905.9
0.0126957 0.125819 0.00285625 98905.9
0.0118322 0.125438 0.00198588 98905.4
0.0118322 0.125438 0.0126141 98905.4
0.0126957 0.125819 0.0146 98905.9
0.00775036 0.12598 0 98906.1
0.00731114 0.125539 0.00221561 98905.5
0.00731114 0.125539 0.0123844 98905.5
0.00775036 0.12598 0.0146 98906.1
0.0190435 0.125526 0 98905.4
0.0190435 0.125526 0.00218531 98905.4
0.0183992 0.125218 0.00148184 98905.1
0.0183992 0.125218 0.0131182 98905.1
0.0190435 0.125526 0.0146 98905.4
0.013899 0.12578 0 98905.9
0.0134982 0.125377 0.00184586 98905.5
0.0134982 0.125377 0.0127541 98905.5
0.013899 0.12578 0.0146 98905.9
0.0253913 0.125107 0 98904.8
0.0253913 0.125107 0.00122762 98904.8
0.0250423 0.124921 0.000802782 98904.6
0.0250423 0.124921 0.0137972 98904.6
0.0253913 0.125107 0.0146 98904.8
0.0199559 0.125488 0 98905.5
0.0196284 0.125159 0.0013454 98905.2
0.0196284 0.125159 0.0132546 98905.2
0.0199559 0.125488 0.0146 98905.5
0.0259003 0.125082 0 98904.8
0.0257025 0.124883 0.000715841 98904.7
0.0259003 0.125082 0.0146 98904.8
0.0257025 0.124883 0.0138842 98904.7
0.295 0.04848 0 98873.9
0.294959 0.0480857 0.00019847 98872.1
0.295 0.04848 0.0011006 98873.9
0.294959 0.0480857 0.0144015 98872.1
0.295 0.04848 0.0146 98873.9
0.294918 0.047999 0 98885
0.294918 0.047999 0.0142022 98885
0.294918 0.047999 0.0146 98885
0.295368 0.053598 0.0128109 98882.4
0.296022 0.0543799 0.0146 98881.5
0.295368 0.053598 0.00178909 98882.4
0.296022 0.0543799 0.00497258 98881.5
0.296022 0.0543799 0 98881.5
0.298 0.0590402 0 98885.4
0.297038 0.0564261 0.0073 98875.4
0.298 0.0590402 0.010663 98885.4
0.298 0.0590402 0.0146 98885.4
0.298317 0.0600864 0.0130568 98885.8
0.298886 0.0607609 0.0146 98886.1
0.298317 0.0600864 0.00154324 98885.8
0.298886 0.0607609 0.00431366 98886.1
0.298886 0.0607609 0 98886.1
0.301 0.0649635 0 98885
0.300166 0.0625338 0.0073 98883.2
0.301 0.0649635 0.00961576 98885
0.301 0.0649635 0.0146 98885
0.301399 0.0662923 0.0126561 98885.4
0.302072 0.0671419 0.0146 98885.2
0.301399 0.0662923 0.00194391 98885.4
0.302072 0.0671419 0.00521964 98885.2
0.302072 0.0671419 0 98885.2
0.304 0.0712352 0 98883.6
0.303235 0.068769 0.0073 98882.8
0.304 0.0712352 0.00936569 98883.6
0.304 0.0712352 0.0146 98883.6
0.304409 0.0726516 0.0126065 98883.8
0.305035 0.0735228 0.0146 98883.6
0.304409 0.0726516 0.00199346 98883.8
0.305035 0.0735228 0.00503896 98883.6
0.305035 0.0735228 0 98883.6
0.307 0.0783498 0 98882.8
0.306155 0.0753195 0.0073 98882.6
0.307 0.0783498 0.0110444 98882.8
0.307 0.0783498 0.0146 98882.8
0.307259 0.0793532 0.0133402 98882.9
0.307622 0.0799038 0.0146 98882.8
0.307259 0.0793532 0.00125985 98882.9
0.307622 0.0799038 0.00303035 98882.8
0.307622 0.0799038 0 98882.8
0.309395 0.0849984 0.00294323 98882.3
0.308733 0.0825984 0.0073 98882
0.309395 0.0849984 0.0116568 98882.3
0.309707 0.0862847 0.0146 98882.6
0.309707 0.0862847 0.013178 98882.6
0.309707 0.0862847 0 98882.6
0.309034 0.0842308 0 98882.7
0.309034 0.0842308 0.0146 98882.7
0.31 0.0872686 0 98882.4
0.309881 0.086537 0.000577146 98882.6
0.31 0.0872686 0.00225115 98882.4
0.309881 0.086537 0.0140229 98882.6
0.31 0.0872686 0.0146 98882.4
0.310745 0.0910793 0.0109701 98882.3
0.311405 0.0926657 0.0146 98881.2
0.310745 0.0910793 0.0036299 98882.3
0.311405 0.0926657 0.00683774 98881.2
0.311405 0.0926657 0 98881.2
0.312569 0.0981303 0.00209678 98880.5
0.312074 0.0946334 0.0073 98880
0.312569 0.0981303 0.0125032 98880.5
0.312572 0.0990467 0.0146 98880.8
0.312572 0.0990467 0.0125213 98880.8
0.312572 0.0990467 0 98880.8
0.312335 0.0976342 0 98881
0.312335 0.0976342 0.0146 98881
0.292654 0.104036 0.0114149 98880.8
0.292654 0.104036 0.00318507 98880.8
0.29348 0.105428 0.0146 98881.4
0.29348 0.105428 0.00720302 98881.4
0.29348 0.105428 0 98881.4
0.313 0.101813 0 98880.8
0.312793 0.0994861 0.00100533 98880.9
0.313 0.101813 0.00633062 98880.8
0.312793 0.0994861 0.0135947 98880.9
0.313 0.101813 0.0146 98880.8
0.313287 0.104817 0.0132033 98881.2
0.313539 0.105428 0.0146 98880.7
0.313287 0.104817 0.0013967 98881.2
0.313539 0.105428 0.002626 98880.7
0.313539 0.105428 0 98880.7
0.295 0.109376 0 98882.2
0.295 0.109376 0.00903356 98882.2
0.294347 0.106817 0.00317904 98882.4
0.294347 0.106817 0.011421 98882.4
0.295 0.109376 0.0146 98882.2
0.295404 0.110949 0.0126323 98882.8
0.295404 0.110949 0.00196775 98882.8
0.295892 0.111809 0.0146 98882.2
0.295892 0.111809 0.00434229 98882.2
0.295892 0.111809 0 98882.2
0.313743 0.110228 0.0109835 98879.7
0.314244 0.111809 0.0146 98878.9
0.313743 0.110228 0.00361653 98879.7
0.314244 0.111809 0.00605652 98878.9
0.314244 0.111809 0 98878.9
0.313435 0.106354 0.00212024 98880.7
0.313684 0.106883 0 98880.3
0.313684 0.106883 0.0146 98880.3
0.313435 0.106354 0.0124798 98880.7
0.297495 0.117116 0.00245579 98881.5
0.297495 0.117116 0.0121442 98881.5
0.296866 0.114221 0.0073 98882.6
0.297658 0.11819 0.0146 98880.8
0.297658 0.11819 0.012938 98880.8
0.297658 0.11819 0 98880.8
0.297164 0.116411 0 98881.3
0.297164 0.116411 0.0146 98881.3
0.314913 0.11819 0.0146 98877.9
0.314913 0.11819 0.00930995 98877.9
0.314649 0.115069 0.00735294 98879.3
0.314913 0.11819 0 98877.9
0.314611 0.115237 0 98878.4
0.314611 0.115237 0.0146 98878.4
0.298 0.11955 0 98880.8
0.298 0.11955 0.00311309 98880.8
0.297854 0.1185 0.000710327 98880.7
0.297854 0.1185 0.0138897 98880.7
0.298 0.11955 0.0146 98880.8
0.298584 0.123328 0.0117573 98880.6
0.298584 0.123328 0.00284271 98880.6
0.299139 0.124571 0.0146 98880.4
0.299139 0.124571 0.00554202 98880.4
0.299139 0.124571 0 98880.4
0.315238 0.124571 0.0146 98878.8
0.315238 0.124571 0.0108956 98878.8
0.315454 0.123409 0.0119434 98878.7
0.315454 0.123409 0.00265657 98878.7
0.315238 0.124571 0 98878.8
0.315322 0.119631 0.00329697 98878.2
0.315322 0.119631 0.011303 98878.2
0.31515 0.122765 0 98878.6
0.31515 0.122765 0.0146 98878.6
0.300138 0.129118 0.00419493 98881.7
0.300138 0.129118 0.0104051 98881.7
0.29977 0.127187 0.00598576 98882.2
0.29977 0.127187 0.00861424 98882.2
0.30041 0.130952 0.0146 98880.5
0.30041 0.130952 0.011729 98880.5
0.30041 0.130952 0 98880.5
0.30002 0.128868 0 98880.5
0.30002 0.128868 0.0146 98880.5
0.315153 0.130952 0.0146 98881.2
0.315153 0.130952 0.0104793 98881.2
0.315431 0.129742 0.0118319 98881.2
0.315431 0.129742 0.00276806 98881.2
0.315153 0.130952 0 98881.2
0.315469 0.125698 0.00257996 98879.6
0.315469 0.125698 0.01202 98879.6
0.315174 0.129195 0 98880.6
0.315174 0.129195 0.0146 98880.6
0.301 0.133441 0 98880.5
0.301 0.133441 0.00569623 98880.5
0.300726 0.131533 0.00133115 98880.4
0.300726 0.131533 0.0132689 98880.4
0.301 0.133441 0.0146 98880.5
0.301438 0.136401 0.0124692 98880.3
0.301438 0.136401 0.00213082 98880.3
0.301887 0.137332 0.0146 98880
0.301887 0.137332 0.00431574 98880
0.301887 0.137332 0 98880
0.314601 0.137332 0.0146 98882
0.314601 0.137332 0.00779436 98882
0.315129 0.13548 0.0073 98883.8
0.314601 0.137332 0 98882
0.31532 0.132397 0.00330625 98882.7
0.31532 0.132397 0.0112938 98882.7
0.31481 0.134802 0 98882.2
0.31481 0.134802 0.0146 98882.2
0.302501 0.140525 0.00729502 98882.9
0.302501 0.140525 0.00730498 98882.9
0.3025 0.140522 0.00729682 98882.9
0.3025 0.140522 0.00730318 98882.9
0.302711 0.143713 0.0146 98878.9
0.302711 0.143713 0.00832732 98878.9
0.302711 0.143713 0 98878.9
0.302189 0.139863 0 98879.4
0.302189 0.139863 0.0146 98879.4
0.313563 0.142514 0.0118562 98882.3
0.313463 0.143713 0.0146 98881.2
0.313563 0.142514 0.00274378 98882.3
0.313463 0.143713 0.00225731 98881.2
0.313463 0.143713 0 98881.2
0.314028 0.13952 0.0073 98883.3
0.314195 0.139875 0 98881.4
0.314195 0.139875 0.0146 98881.4
0.303122 0.148226 0.00427415 98879.4
0.303122 0.148226 0.0103258 98879.4
0.303083 0.145664 0.00446303 98879.3
0.303083 0.145664 0.010137 98879.3
0.302842 0.150094 0.0146 98878.8
0.302842 0.150094 0.00896789 98878.8
0.302842 0.150094 0 98878.8
0.302789 0.14752 0 98879.1
0.302789 0.14752 0.0146 98879.1
0.313 0.145451 0 98881.2
0.312495 0.149022 0.0121461 98882.2
0.312495 0.149022 0.00245386 98882.2
0.313 0.145451 0.00397455 98881.2
0.313 0.145451 0.0146 98881.2
0.311826 0.150094 0.0146 98880.1
0.311826 0.150094 0.0088908 98880.1
0.311826 0.150094 0 98880.1
0.312127 0.148239 0 98880.1
0.312127 0.148239 0.0146 98880.1
0.313383 0.144528 0 98881.1
0.313198 0.144136 0.000966777 98881.1
0.313383 0.144528 0.0146 98881.1
0.313198 0.144136 0.0136332 98881.1
0.302916 0.15417 0.00527375 98881.1
0.302916 0.15417 0.00932625 98881.1
0.302969 0.152286 0.00501422 98879.9
0.302969 0.152286 0.00958578 98879.9
0.302632 0.156475 0.0146 98881.1
0.302632 0.156475 0.00794193 98881.1
0.302632 0.156475 0 98881.1
0.302719 0.153751 0 98881.1
0.302719 0.153751 0.0146 98881.1
0.310706 0.154972 0.011161 98880
0.310975 0.156475 0.0146 98880.2
0.310706 0.154972 0.003439 98880
0.310975 0.156475 0.00474839 98880.2
0.310975 0.156475 0 98880.2
0.310938 0.152091 0.0073 98879.2
0.311424 0.153125 0 98879.1
0.311424 0.153125 0.0146 98879.1
0.3025 0.159666 0.00730078 98880.9
0.3025 0.159666 0.00729922 98880.9
0.302548 0.162856 0.0146 98883
0.302548 0.162856 0.00753363 98883
0.302548 0.162856 0 98883
0.302589 0.159855 0 98882.9
0.302589 0.159855 0.0146 98882.9
0.310934 0.160868 0.0073 98884.5
0.312879 0.162856 0.0146 98889.6
0.312879 0.162856 0.0140141 98889.6
0.312879 0.162856 0 98889.6
0.310714 0.157994 0.00347539 98880.1
0.312787 0.162405 0 98888.9
0.312787 0.162405 0.0146 98888.9
0.310714 0.157994 0.0111246 98880.1
0.302726 0.166528 0.00619925 98882.6
0.302726 0.166528 0.00840075 98882.6
0.302663 0.165699 0.00650511 98882.2
0.302663 0.165699 0.00809489 98882.2
0.302972 0.169237 0.0146 98884.8
0.302972 0.169237 0.00959844 98884.8
0.302972 0.169237 0 98884.8
0.302823 0.166734 0 98884.5
0.302823 0.166734 0.0146 98884.5
0.313 0.163051 0 98889.9
0.312954 0.162953 0.00022117 98889.9
0.313 0.163051 0.000446123 98889.9
0.312954 0.162953 0.0143788 98889.9
0.313 0.163051 0.0146 98889.9
0.315752 0.169237 0.0146 98893.4
0.315752 0.169237 0.0133969 98893.4
0.315787 0.168785 0.0135645 98893.1
0.315787 0.168785 0.00103552 98893.1
0.315752 0.169237 0 98893.4
0.315127 0.164712 0.0073 98892
0.313082 0.163031 0.000400312 98889.9
0.313082 0.163031 0.0141997 98889.9
0.304 0.174242 0 98885.8
0.304 0.174242 0.0114514 98885.8
0.303395 0.170524 0.00294424 98884.4
0.303395 0.170524 0.0116558 98884.4
0.304 0.174242 0.0146 98885.8
0.304139 0.175321 0.01392 98886.3
0.304139 0.175321 0.000679978 98886.3
0.304319 0.175618 0.0146 98885.9
0.304319 0.175618 0.0015541 98885.9
0.304319 0.175618 0 98885.9
0.31546 0.175618 0.0146 98892.4
0.31546 0.175618 0.0119753 98892.4
0.315767 0.175124 0.0134697 98894
0.315767 0.175124 0.00113026 98894
0.31546 0.175618 0 98892.4
0.315893 0.169463 0.000516456 98893.5
0.315893 0.169463 0.0140835 98893.5
0.315466 0.174484 0 98893.7
0.315466 0.174484 0.0146 98893.7
0.307 0.181972 0 98887.7
0.306976 0.181948 0.0144825 98887.7
0.306976 0.181948 0.000117517 98887.7
0.307 0.181972 0.0145375 98887.7
0.307 0.181972 0.0146 98887.7
0.305151 0.17955 0.0073 98885.4
0.304468 0.176613 0.00227717 98885.7
0.304468 0.176613 0.0123228 98885.7
0.307005 0.181989 0.0145755 98887.7
0.307005 0.181989 2.44786e-05 98887.7
0.307031 0.181999 0.0146 98887.7
0.307031 0.181999 0.000151483 98887.7
0.307031 0.181999 0 98887.7
0.313 0.181512 0 98887
0.31291 0.18181 0.0141664 98885.6
0.31291 0.18181 0.000433629 98885.6
0.313 0.181512 0.0134855 98887
0.313 0.181512 0.0146 98887
0.312499 0.181999 0.0146 98886.6
0.312499 0.181999 0.012165 98886.6
0.312499 0.181999 0 98886.6
0.31282 0.181617 0 98886.7
0.31282 0.181617 0.0146 98886.7
0.313425 0.181093 0.0125273 98888.5
0.313425 0.181093 0.00207266 98888.5
0.315005 0.178329 0.00693383 98892.6
0.314571 0.17896 0 98890.6
0.314571 0.17896 0.0146 98890.6
0.31 0.184018 0 98888.9
0.31 0.184018 0.0046182 98888.9
0.309223 0.18365 0.0073 98896.4
0.31 0.184018 0.0146 98888.9
0.310808 0.18372 0 98887.4
0.310637 0.183355 0.00310214 98890.3
0.310808 0.18372 0.0146 98887.4
0.310637 0.183355 0.0114979 98890.3
