# U  POINT_DATA 770
# x y z  U_x U_y U_z
0.209478 0.0658623 0 1.12257 -0.27998 0
0.208793 0.0664535 0.013025 1.11815 -0.293784 0
0.208793 0.0664535 0.001575 1.11815 -0.293784 0
0.209478 0.0658623 0.0116722 1.12257 -0.27998 0
0.209478 0.0658623 0.0146 1.12257 -0.27998 0
0.20517 0.0671419 0.0146 1.08749 -0.32982 0
0.20517 0.0671419 0.00469187 1.08749 -0.32982 0
0.20517 0.0671419 0 1.08749 -0.32982 0
0.208354 0.0660117 0 1.11358 -0.289369 0
0.208354 0.0660117 0.0146 1.11358 -0.289369 0
0.215826 0.0647801 0 1.17354 -0.204685 0
0.214325 0.0656325 0.0111464 1.16382 -0.237879 0
0.214325 0.0656325 0.00345355 1.16382 -0.237879 0
0.215826 0.0647801 0.00919608 1.17354 -0.204685 0
0.215826 0.0647801 0.0146 1.17354 -0.204685 0
0.210501 0.0661133 0.0122467 1.13126 -0.280852 0
0.210501 0.0661133 0.00235332 1.13126 -0.280852 0
0.213787 0.0650917 0 1.15928 -0.224102 0
0.213787 0.0650917 0.0146 1.15928 -0.224102 0
0.222174 0.0638644 0 1.2176 -0.120224 0
0.222174 0.0638644 0.00710097 1.2176 -0.120224 0
0.218918 0.0645979 0.00723707 1.19107 -0.195966 0
0.222174 0.0638644 0.0146 1.2176 -0.120224 0
0.219332 0.0642854 0 1.19709 -0.153801 0
0.219332 0.0642854 0.0146 1.19709 -0.153801 0
0.228522 0.0628552 0 1.25897 0.0026589 0
0.228522 0.0628552 0.00479187 1.25897 0.0026589 0
0.225475 0.0630709 0.00739757 1.23496 -0.0894532 0
0.228522 0.0628552 0.0146 1.25897 0.0026589 0
0.224856 0.0634565 0 1.22921 -0.0582041 0
0.224856 0.0634565 0.0146 1.22921 -0.0582041 0
0.23487 0.0622034 0 1.29791 0.154028 0
0.23487 0.0622034 0.00330046 1.29791 0.154028 0
0.233879 0.0617567 0.00227856 1.29705 0.117634 0
0.233879 0.0617567 0.0123214 1.29705 0.117634 0
0.23487 0.0622034 0.0146 1.29791 0.154028 0
0.230407 0.0626561 0 1.26952 0.0569765 0
0.229779 0.0620252 0.00289279 1.27244 0.0244745 0
0.229779 0.0620252 0.0117072 1.27244 0.0244745 0
0.230407 0.0626561 0.0146 1.26952 0.0569765 0
0.241217 0.0623929 0 1.30483 0.317484 0
0.241217 0.0623929 0.00373407 1.30483 0.317484 0
0.240226 0.0617573 0.00227983 1.31688 0.284017 0
0.240226 0.0617573 0.0123202 1.31688 0.284017 0
0.241217 0.0623929 0.0146 1.30483 0.317484 0
0.236336 0.0622345 0 1.29943 0.195938 0
0.235771 0.0616673 0.00207395 1.31077 0.173893 0
0.235771 0.0616673 0.0125261 1.31077 0.173893 0
0.236336 0.0622345 0.0146 1.29943 0.195938 0
0.247565 0.0633223 0 1.27982 0.49549 0
0.247565 0.0633223 0.00586072 1.27982 0.49549 0
0.245993 0.0623413 0.00361617 1.30614 0.43719 0
0.245993 0.0623413 0.0109838 1.30614 0.43719 0
0.247565 0.0633223 0.0146 1.27982 0.49549 0
0.243118 0.0626714 0 1.29971 0.372333 0
0.242439 0.0619887 0.00280922 1.31773 0.342059 0
0.242439 0.0619887 0.0117908 1.31773 0.342059 0
0.243118 0.0626714 0.0146 1.29971 0.372333 0
0.253913 0.0652595 0 1.24237 0.685023 0
0.253913 0.0652595 0.0102931 1.24237 0.685023 0
0.250766 0.0640267 0.0073203 1.28319 0.575482 0
0.253913 0.0652595 0.0146 1.24237 0.685023 0
0.251298 0.0645131 0 1.26182 0.604162 0
0.251298 0.0645131 0.0146 1.26182 0.604162 0
0.254848 0.0662024 0.0124504 1.23706 0.717792 0
0.254848 0.0662024 0.00214959 1.23706 0.717792 0
0.257835 0.0671419 0.0146 1.20951 0.809873 0
0.257835 0.0671419 0.00902011 1.20951 0.809873 0
0.257835 0.0671419 0 1.20951 0.809873 0
0.190435 0.071845 0 0.951652 -0.442332 0
0.18956 0.0726433 0.0125876 0.942804 -0.453165 0
0.18956 0.0726433 0.00201236 0.942804 -0.453165 0
0.190435 0.071845 0.010761 0.951652 -0.442332 0
0.190435 0.071845 0.0146 0.951652 -0.442332 0
0.186168 0.0735228 0.0146 0.915051 -0.469458 0
0.186168 0.0735228 0.00478748 0.915051 -0.469458 0
0.186168 0.0735228 0 0.915051 -0.469458 0
0.189034 0.0721144 0 0.939684 -0.447326 0
0.189034 0.0721144 0.0146 0.939684 -0.447326 0
0.196783 0.0700169 0 1.00853 -0.408368 0
0.196783 0.0700169 0.00657833 1.00853 -0.408368 0
0.193341 0.0714753 0.00709512 0.975548 -0.438857 0
0.196783 0.0700169 0.0146 1.00853 -0.408368 0
0.194062 0.0707883 0 0.984119 -0.422261 0
0.194062 0.0707883 0.0146 0.984119 -0.422261 0
0.20313 0.0677922 0 1.06929 -0.350995 0
0.20313 0.0677922 0.00148803 1.06929 -0.350995 0
0.202483 0.0677925 0.00148868 1.06407 -0.360774 0
0.202483 0.0677925 0.0131113 1.06407 -0.360774 0
0.20313 0.0677922 0.0146 1.06929 -0.350995 0
0.199012 0.0693831 0 1.02709 -0.382488 0
0.198528 0.0688965 0.0073 1.02595 -0.399214 0
0.199012 0.0693831 0.0146 1.02709 -0.382488 0
0.203681 0.0676952 0 1.0722 -0.342848 0
0.203425 0.0674378 0.000677093 1.0736 -0.347358 0
0.203681 0.0676952 0.0146 1.0722 -0.342848 0
0.203425 0.0674378 0.0139229 1.0736 -0.347358 0
0.260261 0.0683479 0 1.18134 0.890857 0
0.260261 0.0683479 0.00275946 1.18134 0.890857 0
0.259703 0.0677025 0.00128284 1.19457 0.865368 0
0.259703 0.0677025 0.0133172 1.19457 0.865368 0
0.260261 0.0683479 0.0146 1.18134 0.890857 0
0.266609 0.0718601 0 1.11303 1.09036 0
0.266609 0.0718601 0.0107957 1.11303 1.09036 0
0.262978 0.0692403 0.00694987 1.15992 0.968434 0
0.266609 0.0718601 0.0146 1.11303 1.09036 0
0.262965 0.0698604 0 1.15484 0.971992 0
0.262965 0.0698604 0.0146 1.15484 0.971992 0
0.267314 0.0728134 0.0129768 1.10496 1.11759 0
0.267314 0.0728134 0.0016232 1.10496 1.11759 0
0.268696 0.0735228 0.0146 1.09506 1.15469 0
0.268696 0.0735228 0.0048003 1.09506 1.15469 0
0.268696 0.0735228 0 1.09506 1.15469 0
0.171391 0.0798962 0 0.785498 -0.530515 0
0.171388 0.0799002 0.0145919 0.785459 -0.53055 0
0.171388 0.0799002 8.10031e-06 0.785459 -0.53055 0
0.171391 0.0798962 0.0145826 0.785498 -0.530515 0
0.171391 0.0798962 0.0146 0.785498 -0.530515 0
0.171378 0.0799038 0.0146 0.785373 -0.530567 0
0.171378 0.0799038 0.0145691 0.785373 -0.530567 0
0.171378 0.0799038 0 0.785373 -0.530567 0
0.171385 0.0798972 0 0.785446 -0.530515 0
0.171385 0.0798972 0.0146 0.785446 -0.530515 0
0.177739 0.077094 0 0.841968 -0.509413 0
0.17623 0.0783864 0.0111282 0.826184 -0.521131 0
0.17623 0.0783864 0.00347181 0.826184 -0.521131 0
0.177739 0.077094 0.00817113 0.841968 -0.509413 0
0.177739 0.077094 0.0146 0.841968 -0.509413 0
0.171398 0.0798971 0.0145846 0.785542 -0.530535 0
0.171398 0.0798971 1.53683e-05 0.785542 -0.530535 0
0.175587 0.0777399 0 0.824392 -0.512901 0
0.175587 0.0777399 0.0146 0.824392 -0.512901 0
0.184087 0.0744046 0 0.896962 -0.48141 0
0.184087 0.0744046 0.00201764 0.896962 -0.48141 0
0.182933 0.0746831 0.00265487 0.886185 -0.490556 0
0.182933 0.0746831 0.0119451 0.886185 -0.490556 0
0.184087 0.0744046 0.0146 0.896962 -0.48141 0
0.18037 0.0761672 0 0.861309 -0.496453 0
0.180012 0.0758075 0.0073 0.858457 -0.506713 0
0.18037 0.0761672 0.0146 0.861309 -0.496453 0
0.184809 0.0742484 0 0.900724 -0.476288 0
0.184473 0.0739107 0.000887416 0.902319 -0.477471 0
0.184809 0.0742484 0.0146 0.900724 -0.476288 0
0.184473 0.0739107 0.0137126 0.902319 -0.477471 0
0.272957 0.0770867 0 1.06237 1.26759 0
0.272957 0.0770867 0.00815439 1.06237 1.26759 0
0.271535 0.0749517 0.00326926 1.07586 1.23098 0
0.271535 0.0749517 0.0113307 1.07586 1.23098 0
0.272957 0.0770867 0.0146 1.06237 1.26759 0
0.274089 0.0787651 0.0119946 1.05287 1.30235 0
0.274089 0.0787651 0.00260544 1.05287 1.30235 0
0.275821 0.0799038 0.0146 1.04704 1.34106 0
0.275821 0.0799038 0.00658832 1.04704 1.34106 0
0.275821 0.0799038 0 1.04704 1.34106 0
0.158696 0.0860214 0 0.676832 -0.554082 0
0.158575 0.0861638 0.0143233 0.675535 -0.554928 0
0.158575 0.0861638 0.000276659 0.675535 -0.554928 0
0.158696 0.0860214 0.0139974 0.676832 -0.554082 0
0.158696 0.0860214 0.0146 0.676832 -0.554082 0
0.158242 0.0862847 0.0146 0.672917 -0.554929 0
0.158242 0.0862847 0.0135555 0.672917 -0.554929 0
0.158242 0.0862847 0 0.672917 -0.554929 0
0.158473 0.0860609 0 0.675216 -0.553752 0
0.158473 0.0860609 0.0146 0.675216 -0.553752 0
0.165043 0.0830197 0 0.731069 -0.550229 0
0.165043 0.0830197 0.00712947 0.731069 -0.550229 0
0.163266 0.0844985 0.0073 0.713149 -0.557999 0
0.165043 0.0830197 0.0146 0.731069 -0.550229 0
0.158958 0.086021 0.0139965 0.67843 -0.554994 0
0.158958 0.086021 0.000603452 0.67843 -0.554994 0
0.162644 0.0838728 0 0.712859 -0.550889 0
0.162644 0.0838728 0.0146 0.712859 -0.550889 0
0.167329 0.0822012 0 0.747613 -0.540946 0
0.166782 0.0816511 0.0073 0.742779 -0.545625 0
0.167329 0.0822012 0.0146 0.747613 -0.540946 0
0.279304 0.0838122 0 1.03154 1.42297 0
0.279304 0.0838122 0.00894278 1.03154 1.42297 0
0.277929 0.081286 0.00316249 1.03959 1.39229 0
0.277929 0.081286 0.0114375 1.03959 1.39229 0
0.279304 0.0838122 0.0146 1.03154 1.42297 0
0.280185 0.0853992 0.0125738 1.02706 1.44506 0
0.280185 0.0853992 0.00202624 1.02706 1.44506 0
0.281413 0.0862847 0.0146 1.02315 1.4697 0
0.281413 0.0862847 0.00485017 1.02315 1.4697 0
0.281413 0.0862847 0 1.02315 1.4697 0
0.146 0.0922813 0 0.580977 -0.557553 0
0.145823 0.0924882 0.0141938 0.579259 -0.558385 0
0.145823 0.0924882 0.000406201 0.579259 -0.558385 0
0.146 0.0922813 0.0137205 0.580977 -0.557553 0
0.146 0.0922813 0.0146 0.580977 -0.557553 0
0.145311 0.0926657 0.0146 0.575569 -0.557823 0
0.145311 0.0926657 0.0130153 0.575569 -0.557823 0
0.145311 0.0926657 0 0.575569 -0.557823 0
0.145676 0.09234 0 0.578918 -0.556811 0
0.145676 0.09234 0.0146 0.578918 -0.556811 0
0.152348 0.0892951 0 0.630033 -0.563597 0
0.152348 0.0892951 0.00688774 0.630033 -0.563597 0
0.150511 0.090819 0.0073 0.612693 -0.567859 0
0.152348 0.0892951 0.0146 0.630033 -0.563597 0
0.146389 0.0922752 0.0137064 0.582866 -0.559165 0
0.146389 0.0922752 0.000893579 0.582866 -0.559165 0
0.149891 0.0901958 0 0.61413 -0.561461 0
0.149891 0.0901958 0.0146 0.61413 -0.561461 0
0.154562 0.0885104 0 0.646588 -0.560713 0
0.15398 0.087925 0.0073 0.637071 -0.560265 0
0.154562 0.0885104 0.0146 0.646588 -0.560713 0
0.285652 0.0922118 0 1.00844 1.56707 0
0.285652 0.0922118 0.0135615 1.00844 1.56707 0
0.283593 0.0883546 0.0073 1.01795 1.52762 0
0.285652 0.0922118 0.0146 1.00844 1.56707 0
0.285803 0.0925139 0.0142525 1.0076 1.57029 0
0.285803 0.0925139 0.000347461 1.0076 1.57029 0
0.285992 0.0926657 0.0146 1.00683 1.57255 0
0.285992 0.0926657 0.000781004 1.00683 1.57255 0
0.285992 0.0926657 0 1.00683 1.57255 0
0.133304 0.0982104 0 0.493856 -0.546765 0
0.13291 0.0986501 0.0136926 0.490524 -0.547954 0
0.13291 0.0986501 0.000907405 0.490524 -0.547954 0
0.133304 0.0982104 0.0126866 0.493856 -0.546765 0
0.133304 0.0982104 0.0146 0.493856 -0.546765 0
0.131609 0.0990467 0.0146 0.482657 -0.54592 0
0.131609 0.0990467 0.0107006 0.482657 -0.54592 0
0.131609 0.0990467 0 0.482657 -0.54592 0
0.132607 0.0983458 0 0.489997 -0.545074 0
0.132607 0.0983458 0.0146 0.489997 -0.545074 0
0.139652 0.0954846 0 0.535949 -0.559957 0
0.139652 0.0954846 0.00644977 0.535949 -0.559957 0
0.137611 0.0969947 0.0073 0.51901 -0.560948 0
0.139652 0.0954846 0.0146 0.535949 -0.559957 0
0.134199 0.0981474 0.0125424 0.497685 -0.550344 0
0.134199 0.0981474 0.00205762 0.497685 -0.550344 0
0.137055 0.0964358 0 0.521039 -0.556725 0
0.137055 0.0964358 0.0146 0.521039 -0.556725 0
0.141753 0.0947777 0 0.554651 -0.56356 0
0.141166 0.0941872 0.00348132 0.542361 -0.55652 0
0.141753 0.0947777 0.0146 0.554651 -0.56356 0
0.141166 0.0941872 0.0111187 0.542361 -0.55652 0
0.287919 0.0967682 0.0073 0.985584 1.63194 0
0.289956 0.0990467 0.00989952 0.974125 1.65546 0
0.289956 0.0990467 0.0146 0.974125 1.65546 0
0.289956 0.0990467 0 0.974125 1.65546 0
0.286144 0.0931605 0.00113212 1.00433 1.58094 0
0.286503 0.0935208 0 1.00253 1.58432 0
0.286144 0.0931605 0.0134679 1.00433 1.58094 0
0.286503 0.0935208 0.0146 1.00253 1.58432 0
0.120609 0.103621 0 0.42083 -0.530644 0
0.119698 0.104512 0.0125044 0.414417 -0.532165 0
0.119698 0.104512 0.00209557 0.414417 -0.532165 0
0.120609 0.103621 0.0104653 0.42083 -0.530644 0
0.120609 0.103621 0.0146 0.42083 -0.530644 0
0.116146 0.105428 0.0146 0.396351 -0.526197 0
0.116146 0.105428 0.00433575 0.396351 -0.526197 0
0.116146 0.105428 0 0.396351 -0.526197 0
0.119144 0.103955 0 0.413854 -0.527557 0
0.119144 0.103955 0.0146 0.413854 -0.527557 0
0.126957 0.101207 0 0.454561 -0.545231 0
0.126957 0.101207 0.00494401 0.454561 -0.545231 0
0.12361 0.102742 0.00716734 0.432331 -0.538963 0
0.126957 0.101207 0.0146 0.454561 -0.545231 0
0.123909 0.102364 0 0.43896 -0.541791 0
0.123909 0.102364 0.0146 0.43896 -0.541791 0
0.128636 0.100734 0 0.463492 -0.548745 0
0.128063 0.100159 0.00254467 0.459697 -0.541931 0
0.128636 0.100734 0.0146 0.463492 -0.548745 0
0.128063 0.100159 0.0120553 0.459697 -0.541931 0
0.292 0.101679 0 0.958345 1.69991 0
0.292 0.101679 0.00602226 0.958345 1.69991 0
0.291049 0.100002 0.00218649 0.96607 1.69187 0
0.291049 0.100002 0.0124135 0.96607 1.69187 0
0.292 0.101679 0.0146 0.958345 1.69991 0
0.101565 0.110473 0 0.331787 -0.505486 0
0.100872 0.111112 0.0130055 0.327813 -0.506411 0
0.100872 0.111112 0.00159455 0.327813 -0.506411 0
0.101565 0.110473 0.011545 0.331787 -0.505486 0
0.101565 0.110473 0.0146 0.331787 -0.505486 0
0.0975365 0.111809 0.0146 0.312468 -0.501145 0
0.0975365 0.111809 0.00533406 0.312468 -0.501145 0
0.0975365 0.111809 0 0.312468 -0.501145 0
0.10043 0.110668 0 0.327364 -0.503525 0
0.10043 0.110668 0.0146 0.327364 -0.503525 0
0.107913 0.108498 0 0.359394 -0.514969 0
0.107913 0.108498 0.00702431 0.359394 -0.514969 0
0.105864 0.109749 0.0073 0.347115 -0.514719 0
0.107913 0.108498 0.0146 0.359394 -0.514969 0
0.102877 0.11049 0.0115835 0.334926 -0.509286 0
0.102877 0.11049 0.00301654 0.334926 -0.509286 0
0.105334 0.109216 0 0.349247 -0.51101 0
0.105334 0.109216 0.0146 0.349247 -0.51101 0
0.114261 0.106236 0 0.387105 -0.525987 0
0.114261 0.106236 0.00185019 0.387105 -0.525987 0
0.113434 0.106259 0.00190148 0.381538 -0.5221 0
0.113434 0.106259 0.0126985 0.381538 -0.5221 0
0.114261 0.106236 0.0146 0.387105 -0.525987 0
0.110295 0.107823 0 0.369792 -0.523908 0
0.109796 0.10732 0.0073 0.363154 -0.51578 0
0.110295 0.107823 0.0146 0.369792 -0.523908 0
0.114939 0.106109 0 0.390214 -0.527227 0
0.114646 0.105814 0.000884757 0.388594 -0.523963 0
0.114939 0.106109 0.0146 0.390214 -0.527227 0
0.114646 0.105814 0.0137152 0.388594 -0.523963 0
0.0761739 0.117452 0 0.231014 -0.477086 0
0.0757811 0.117795 0.0136964 0.229238 -0.477642 0
0.0757811 0.117795 0.000903583 0.229238 -0.477642 0
0.0761739 0.117452 0.0129135 0.231014 -0.477086 0
0.0761739 0.117452 0.0146 0.231014 -0.477086 0
0.0731004 0.11819 0.0146 0.219626 -0.474512 0
0.0731004 0.11819 0.00753089 0.219626 -0.474512 0
0.0731004 0.11819 0 0.219626 -0.474512 0
0.0755151 0.117527 0 0.228801 -0.476293 0
0.0755151 0.117527 0.0146 0.228801 -0.476293 0
0.0825217 0.11596 0 0.255472 -0.482801 0
0.0812161 0.116877 0.0115969 0.249261 -0.483756 0
0.0812161 0.116877 0.00300306 0.249261 -0.483756 0
0.0825217 0.11596 0.00949897 0.255472 -0.482801 0
0.0825217 0.11596 0.0146 0.255472 -0.482801 0
0.0767363 0.117624 0.0133065 0.232347 -0.478723 0
0.0767363 0.117624 0.00129348 0.232347 -0.478723 0
0.0806321 0.11629 0 0.249091 -0.480508 0
0.0806321 0.11629 0.0146 0.249091 -0.480508 0
0.0888696 0.114399 0 0.279339 -0.490978 0
0.0888696 0.114399 0.00592779 0.279339 -0.490978 0
0.0855991 0.11543 0.00722599 0.262362 -0.487763 0
0.0888696 0.114399 0.0146 0.279339 -0.490978 0
0.0858433 0.115148 0 0.269306 -0.487663 0
0.0858433 0.115148 0.0146 0.269306 -0.487663 0
0.0952174 0.112608 0 0.302708 -0.500052 0
0.0952174 0.112608 0.00182968 0.302708 -0.500052 0
0.094512 0.112518 0.0016225 0.297967 -0.496588 0
0.094512 0.112518 0.0129775 0.297967 -0.496588 0
0.0952174 0.112608 0.0146 0.302708 -0.500052 0
0.0909893 0.113939 0 0.288237 -0.497903 0
0.0904565 0.113404 0.00364998 0.281179 -0.490648 0
0.0904565 0.113404 0.01095 0.281179 -0.490648 0
0.0909893 0.113939 0.0146 0.288237 -0.497903 0
0.0958998 0.112495 0 0.305857 -0.50167 0
0.0956221 0.112215 0.000930792 0.3032 -0.498154 0
0.0958998 0.112495 0.0146 0.305857 -0.50167 0
0.0956221 0.112215 0.0136692 0.3032 -0.498154 0
0.0317391 0.124534 0 0.0905162 -0.447735 0
0.0317187 0.12455 0.0145529 0.0904491 -0.447773 0
0.0317187 0.12455 4.7095e-05 0.0904491 -0.447773 0
0.0317391 0.124534 0.0145153 0.0905162 -0.447735 0
0.0317391 0.124534 0.0146 0.0905162 -0.447735 0
0.031343 0.124571 0.0146 0.0893759 -0.447616 0
0.031343 0.124571 0.0136888 0.0893759 -0.447616 0
0.031343 0.124571 0 0.0893759 -0.447616 0
0.0317038 0.124535 0 0.090414 -0.44772 0
0.0317038 0.124535 0.0146 0.090414 -0.44772 0
0.038087 0.123845 0 0.109397 -0.450287 0
0.0376703 0.124152 0.0136418 0.107978 -0.450925 0
0.0376703 0.124152 0.000958241 0.107978 -0.450925 0
0.038087 0.123845 0.0129398 0.109397 -0.450287 0
0.038087 0.123845 0.0146 0.109397 -0.450287 0
0.0317622 0.124547 0.0145469 0.090573 -0.447793 0
0.0317622 0.124547 5.30744e-05 0.090573 -0.447793 0
0.0374048 0.123885 0 0.107402 -0.449939 0
0.0374048 0.123885 0.0146 0.107402 -0.449939 0
0.0444348 0.123096 0 0.12886 -0.453596 0
0.0435394 0.12367 0.0125406 0.125673 -0.454582 0
0.0435394 0.12367 0.00205939 0.125673 -0.454582 0
0.0444348 0.123096 0.011226 0.12886 -0.453596 0
0.0444348 0.123096 0.0146 0.12886 -0.453596 0
0.0385813 0.124074 0.013463 0.110593 -0.451398 0
0.0385813 0.124074 0.00113696 0.110593 -0.451398 0
0.0430723 0.123201 0 0.124833 -0.452784 0
0.0430723 0.123201 0.0146 0.124833 -0.452784 0
0.0507826 0.12226 0 0.148528 -0.457314 0
0.0492733 0.123053 0.0111287 0.142874 -0.458259 0
0.0492733 0.123053 0.00347131 0.142874 -0.458259 0
0.0507826 0.12226 0.00931304 0.148528 -0.457314 0
0.0507826 0.12226 0.0146 0.148528 -0.457314 0
0.0455764 0.123423 0.0119743 0.131507 -0.455716 0
0.0455764 0.123423 0.00262565 0.131507 -0.455716 0
0.0487091 0.122486 0 0.14236 -0.455985 0
0.0487091 0.122486 0.0146 0.14236 -0.455985 0
0.0571304 0.121301 0 0.167477 -0.461655 0
0.0571304 0.121301 0.00711998 0.167477 -0.461655 0
0.0538552 0.122152 0.00722232 0.155566 -0.460408 0
0.0571304 0.121301 0.0146 0.167477 -0.461655 0
0.0542987 0.121724 0 0.158922 -0.459823 0
0.0542987 0.121724 0.0146 0.158922 -0.459823 0
0.0634783 0.120223 0 0.187361 -0.467119 0
0.0634783 0.120223 0.00465193 0.187361 -0.467119 0
0.0604568 0.120383 0.00741689 0.175746 -0.462742 0
0.0634783 0.120223 0.0146 0.187361 -0.467119 0
0.0598157 0.120889 0 0.176041 -0.464836 0
0.0598157 0.120889 0.0146 0.176041 -0.464836 0
0.0698261 0.118977 0 0.208227 -0.472566 0
0.0698261 0.118977 0.00180126 0.208227 -0.472566 0
0.069215 0.118804 0.00140554 0.205431 -0.470076 0
0.069215 0.118804 0.0131945 0.205431 -0.470076 0
0.0698261 0.118977 0.0146 0.208227 -0.472566 0
0.0652476 0.119968 0 0.193554 -0.470315 0
0.0647341 0.119452 0.0028885 0.190187 -0.465564 0
0.0647341 0.119452 0.0117115 0.190187 -0.465564 0
0.0652476 0.119968 0.0146 0.193554 -0.470315 0
0.0705217 0.118889 0 0.210497 -0.474283 0
0.0702503 0.118616 0.000975588 0.209258 -0.47111 0
0.0705217 0.118889 0.0146 0.210497 -0.474283 0
0.0702503 0.118616 0.0136244 0.209258 -0.47111 0
0.00634783 0.126012 0 0.0202889 -0.443267 0
0.00634783 0.126012 0.00329807 0.0202889 -0.443267 0
0.0053362 0.125587 0.00232674 0.0172382 -0.440517 0
0.0053362 0.125587 0.0122733 0.0172382 -0.440517 0
0.00634783 0.126012 0.0146 0.0202889 -0.443267 0
0.00104929 0.125625 0.0121866 0.00383291 -0.146959 0
0 0.126087 0.0146 0 0 0
0.00104929 0.125625 0.00241338 0.00383291 -0.146959 0
0 0.126087 0.00346877 0 0 0
0 0.126087 0 0 0 0
0.00149492 0.126073 0 0.00510901 -0.108122 0
0.00149492 0.126073 0.0146 0.00510901 -0.108122 0
0.0126957 0.125819 0 0.0371452 -0.444097 0
0.0126957 0.125819 0.00285625 0.0371452 -0.444097 0
0.0118322 0.125438 0.00198588 0.0347663 -0.441812 0
0.0118322 0.125438 0.0126141 0.0347663 -0.441812 0
0.0126957 0.125819 0.0146 0.0371452 -0.444097 0
0.00775036 0.12598 0 0.0236656 -0.44332 0
0.00731114 0.125539 0.00221561 0.02244 -0.440853 0
0.00731114 0.125539 0.0123844 0.02244 -0.440853 0
0.00775036 0.12598 0.0146 0.0236656 -0.44332 0
0.0190435 0.125526 0 0.0548163 -0.445015 0
0.0190435 0.125526 0.00218531 0.0548163 -0.445015 0
0.0183992 0.125218 0.00148184 0.0528596 -0.442992 0
0.0183992 0.125218 0.0131182 0.0528596 -0.442992 0
0.0190435 0.125526 0.0146 0.0548163 -0.445015 0
0.013899 0.12578 0 0.0406236 -0.444474 0
0.0134982 0.125377 0.00184586 0.0392948 -0.441995 0
0.0134982 0.125377 0.0127541 0.0392948 -0.441995 0
0.013899 0.12578 0.0146 0.0406236 -0.444474 0
0.0253913 0.125107 0 0.072364 -0.446309 0
0.0253913 0.125107 0.00122762 0.072364 -0.446309 0
0.0250423 0.124921 0.000802782 0.0713723 -0.444991 0
0.0250423 0.124921 0.0137972 0.0713723 -0.444991 0
0.0253913 0.125107 0.0146 0.072364 -0.446309 0
0.0199559 0.125488 0 0.0571779 -0.445457 0
0.0196284 0.125159 0.0013454 0.0562352 -0.443288 0
0.0196284 0.125159 0.0132546 0.0562352 -0.443288 0
0.0199559 0.125488 0.0146 0.0571779 -0.445457 0
0.0259003 0.125082 0 0.0737431 -0.446661 0
0.0257025 0.124883 0.000715841 0.0732394 -0.445228 0
0.0259003 0.125082 0.0146 0.0737431 -0.446661 0
0.0257025 0.124883 0.0138842 0.0732394 -0.445228 0
0.295 0.04848 0 0.0481815 0.120658 0
0.294959 0.0480857 0.00019847 0.0210451 0.0451582 0
0.295 0.04848 0.0011006 0.0481815 0.120658 0
0.294959 0.0480857 0.0144015 0.0210451 0.0451582 0
0.295 0.04848 0.0146 0.0481815 0.120658 0
0.294918 0.047999 0 0 0 0
0.294918 0.047999 0.0142022 0 0 0
0.294918 0.047999 0.0146 0 0 0
0.295368 0.053598 0.0128109 0.481074 1.57342 0
0.296022 0.0543799 0.0146 0.409034 1.43103 0
0.295368 0.053598 0.00178909 0.481074 1.57342 0
0.296022 0.0543799 0.00497258 0.409034 1.43103 0
0.296022 0.0543799 0 0.409034 1.43103 0
0.298 0.0590402 0 0.667203 1.48853 0
0.297038 0.0564261 0.0073 0.563705 1.44196 0
0.298 0.0590402 0.010663 0.667203 1.48853 0
0.298 0.0590402 0.0146 0.667203 1.48853 0
0.298317 0.0600864 0.0130568 0.913138 1.62633 0
0.298886 0.0607609 0.0146 0.876159 1.599 0
0.298317 0.0600864 0.00154324 0.913138 1.62633 0
0.298886 0.0607609 0.00431366 0.876159 1.599 0
0.298886 0.0607609 0 0.876159 1.599 0
0.301 0.0649635 0 0.900973 1.61249 0
0.300166 0.0625338 0.0073 0.874369 1.59312 0
0.301 0.0649635 0.00961576 0.900973 1.61249 0
0.301 0.0649635 0.0146 0.900973 1.61249 0
0.301399 0.0662923 0.0126561 0.969274 1.65102 0
0.302072 0.0671419 0.0146 0.959078 1.64095 0
0.301399 0.0662923 0.00194391 0.969274 1.65102 0
0.302072 0.0671419 0.00521964 0.959078 1.64095 0
0.302072 0.0671419 0 0.959078 1.64095 0
0.304 0.0712352 0 0.962307 1.66742 0
0.303235 0.068769 0.0073 0.958311 1.64823 0
0.304 0.0712352 0.00936569 0.962307 1.66742 0
0.304 0.0712352 0.0146 0.962307 1.66742 0
0.304409 0.0726516 0.0126065 0.979331 1.69224 0
0.305035 0.0735228 0.0146 0.964142 1.67239 0
0.304409 0.0726516 0.00199346 0.979331 1.69224 0
0.305035 0.0735228 0.00503896 0.964142 1.67239 0
0.305035 0.0735228 0 0.964142 1.67239 0
0.307 0.0783498 0 0.954598 1.7115 0
0.306155 0.0753195 0.0073 0.956376 1.68089 0
0.307 0.0783498 0.0110444 0.954598 1.7115 0
0.307 0.0783498 0.0146 0.954598 1.7115 0
0.307259 0.0793532 0.0133402 0.962031 1.73481 0
0.307622 0.0799038 0.0146 0.947474 1.71094 0
0.307259 0.0793532 0.00125985 0.962031 1.73481 0
0.307622 0.0799038 0.00303035 0.947474 1.71094 0
0.307622 0.0799038 0 0.947474 1.71094 0
0.309395 0.0849984 0.00294323 0.935586 1.76934 0
0.308733 0.0825984 0.0073 0.940412 1.74175 0
0.309395 0.0849984 0.0116568 0.935586 1.76934 0
0.309707 0.0862847 0.0146 0.928002 1.77108 0
0.309707 0.0862847 0.013178 0.928002 1.77108 0
0.309707 0.0862847 0 0.928002 1.77108 0
0.309034 0.0842308 0 0.937798 1.76058 0
0.309034 0.0842308 0.0146 0.937798 1.76058 0
0.31 0.0872686 0 0.92294 1.77807 0
0.309881 0.086537 0.000577146 0.926165 1.77268 0
0.31 0.0872686 0.00225115 0.92294 1.77807 0
0.309881 0.086537 0.0140229 0.926165 1.77268 0
0.31 0.0872686 0.0146 0.92294 1.77807 0
0.310745 0.0910793 0.0109701 0.908929 1.81241 0
0.311405 0.0926657 0.0146 0.886167 1.78045 0
0.310745 0.0910793 0.0036299 0.908929 1.81241 0
0.311405 0.0926657 0.00683774 0.886167 1.78045 0
0.311405 0.0926657 0 0.886167 1.78045 0
0.312569 0.0981303 0.00209678 0.863141 1.84791 0
0.312074 0.0946334 0.0073 0.87679 1.80032 0
0.312569 0.0981303 0.0125032 0.863141 1.84791 0
0.312572 0.0990467 0.0146 0.857474 1.85162 0
0.312572 0.0990467 0.0125213 0.857474 1.85162 0
0.312572 0.0990467 0 0.857474 1.85162 0
0.312335 0.0976342 0 0.865783 1.84404 0
0.312335 0.0976342 0.0146 0.865783 1.84404 0
0.292654 0.104036 0.0114149 0.947534 1.7191 0
0.292654 0.104036 0.00318507 0.947534 1.7191 0
0.29348 0.105428 0.0146 0.937725 1.73646 0
0.29348 0.105428 0.00720302 0.937725 1.73646 0
0.29348 0.105428 0 0.937725 1.73646 0
0.313 0.101813 0 0.84238 1.87017 0
0.312793 0.0994861 0.00100533 0.854185 1.85423 0
0.313 0.101813 0.00633062 0.84238 1.87017 0
0.312793 0.0994861 0.0135947 0.854185 1.85423 0
0.313 0.101813 0.0146 0.84238 1.87017 0
0.313287 0.104817 0.0132033 0.828121 1.89141 0
0.313539 0.105428 0.0146 0.811623 1.85492 0
0.313287 0.104817 0.0013967 0.828121 1.89141 0
0.313539 0.105428 0.002626 0.811623 1.85492 0
0.313539 0.105428 0 0.811623 1.85492 0
0.295 0.109376 0 0.915985 1.77751 0
0.295 0.109376 0.00903356 0.915985 1.77751 0
0.294347 0.106817 0.00317904 0.928212 1.75922 0
0.294347 0.106817 0.011421 0.928212 1.75922 0
0.295 0.109376 0.0146 0.915985 1.77751 0
0.295404 0.110949 0.0126323 0.907675 1.79088 0
0.295404 0.110949 0.00196775 0.907675 1.79088 0
0.295892 0.111809 0.0146 0.900528 1.80294 0
0.295892 0.111809 0.00434229 0.900528 1.80294 0
0.295892 0.111809 0 0.900528 1.80294 0
0.313743 0.110228 0.0109835 0.797164 1.92644 0
0.314244 0.111809 0.0146 0.761769 1.88726 0
0.313743 0.110228 0.00361653 0.797164 1.92644 0
0.314244 0.111809 0.00605652 0.761769 1.88726 0
0.314244 0.111809 0 0.761769 1.88726 0
0.313435 0.106354 0.00212024 0.819598 1.90148 0
0.313684 0.106883 0 0.802104 1.87774 0
0.313684 0.106883 0.0146 0.802104 1.87774 0
0.313435 0.106354 0.0124798 0.819598 1.90148 0
0.297495 0.117116 0.00245579 0.860955 1.8739 0
0.297495 0.117116 0.0121442 0.860955 1.8739 0
0.296866 0.114221 0.0073 0.879379 1.84403 0
0.297658 0.11819 0.0146 0.855174 1.88074 0
0.297658 0.11819 0.012938 0.855174 1.88074 0
0.297658 0.11819 0 0.855174 1.88074 0
0.297164 0.116411 0 0.867746 1.86019 0
0.297164 0.116411 0.0146 0.867746 1.86019 0
0.314913 0.11819 0.0146 0.7255 1.9412 0
0.314913 0.11819 0.00930995 0.7255 1.9412 0
0.314649 0.115069 0.00735294 0.762384 1.94909 0
0.314913 0.11819 0 0.7255 1.9412 0
0.314611 0.115237 0 0.746369 1.92912 0
0.314611 0.115237 0.0146 0.746369 1.92912 0
0.298 0.11955 0 0.846431 1.89638 0
0.298 0.11955 0.00311309 0.846431 1.89638 0
0.297854 0.1185 0.000710327 0.851812 1.88934 0
0.297854 0.1185 0.0138897 0.851812 1.88934 0
0.298 0.11955 0.0146 0.846431 1.89638 0
0.298584 0.123328 0.0117573 0.824762 1.92775 0
0.298584 0.123328 0.00284271 0.824762 1.92775 0
0.299139 0.124571 0.0146 0.814729 1.94197 0
0.299139 0.124571 0.00554202 0.814729 1.94197 0
0.299139 0.124571 0 0.814729 1.94197 0
0.315238 0.124571 0.0146 0.698092 1.97331 0
0.315238 0.124571 0.0108956 0.698092 1.97331 0
0.315454 0.123409 0.0119434 0.706334 1.97086 0
0.315454 0.123409 0.00265657 0.706334 1.97086 0
0.315238 0.124571 0 0.698092 1.97331 0
0.315322 0.119631 0.00329697 0.720575 1.95125 0
0.315322 0.119631 0.011303 0.720575 1.95125 0
0.31515 0.122765 0 0.708369 1.96551 0
0.31515 0.122765 0.0146 0.708369 1.96551 0
0.300138 0.129118 0.00419493 0.780395 1.9959 0
0.300138 0.129118 0.0104051 0.780395 1.9959 0
0.29977 0.127187 0.00598576 0.792914 1.97705 0
0.29977 0.127187 0.00861424 0.792914 1.97705 0
0.30041 0.130952 0.0146 0.770512 2.00748 0
0.30041 0.130952 0.011729 0.770512 2.00748 0
0.30041 0.130952 0 0.770512 2.00748 0
0.30002 0.128868 0 0.784573 1.98843 0
0.30002 0.128868 0.0146 0.784573 1.98843 0
0.315153 0.130952 0.0146 0.669297 1.98622 0
0.315153 0.130952 0.0104793 0.669297 1.98622 0
0.315431 0.129742 0.0118319 0.676864 1.9849 0
0.315431 0.129742 0.00276806 0.676864 1.9849 0
0.315153 0.130952 0 0.669297 1.98622 0
0.315469 0.125698 0.00257996 0.69463 1.9805 0
0.315469 0.125698 0.01202 0.69463 1.9805 0
0.315174 0.129195 0 0.677648 1.97783 0
0.315174 0.129195 0.0146 0.677648 1.97783 0
0.301 0.133441 0 0.753742 2.03401 0
0.301 0.133441 0.00569623 0.753742 2.03401 0
0.300726 0.131533 0.00133115 0.764094 2.02122 0
0.300726 0.131533 0.0132689 0.764094 2.02122 0
0.301 0.133441 0.0146 0.753742 2.03401 0
0.301438 0.136401 0.0124692 0.736366 2.05785 0
0.301438 0.136401 0.00213082 0.736366 2.05785 0
0.301887 0.137332 0.0146 0.727847 2.06805 0
0.301887 0.137332 0.00431574 0.727847 2.06805 0
0.301887 0.137332 0 0.727847 2.06805 0
0.314601 0.137332 0.0146 0.643447 1.98767 0
0.314601 0.137332 0.00779436 0.643447 1.98767 0
0.315129 0.13548 0.0073 0.654442 1.99082 0
0.314601 0.137332 0 0.643447 1.98767 0
0.31532 0.132397 0.00330625 0.667041 1.99923 0
0.31532 0.132397 0.0112938 0.667041 1.99923 0
0.31481 0.134802 0 0.652088 1.96883 0
0.31481 0.134802 0.0146 0.652088 1.96883 0
0.302501 0.140525 0.00729502 0.700173 2.11268 0
0.302501 0.140525 0.00730498 0.700173 2.11268 0
0.3025 0.140522 0.00729682 0.700196 2.11265 0
0.3025 0.140522 0.00730318 0.700196 2.11265 0
0.302711 0.143713 0.0146 0.684188 2.13051 0
0.302711 0.143713 0.00832732 0.684188 2.13051 0
0.302711 0.143713 0 0.684188 2.13051 0
0.302189 0.139863 0 0.710509 2.09228 0
0.302189 0.139863 0.0146 0.710509 2.09228 0
0.313563 0.142514 0.0118562 0.638458 2.06772 0
0.313463 0.143713 0.0146 0.622385 2.0478 0
0.313563 0.142514 0.00274378 0.638458 2.06772 0
0.313463 0.143713 0.00225731 0.622385 2.0478 0
0.313463 0.143713 0 0.622385 2.0478 0
0.314028 0.13952 0.0073 0.653089 2.05843 0
0.314195 0.139875 0 0.625033 1.9986 0
0.314195 0.139875 0.0146 0.625033 1.9986 0
0.303122 0.148226 0.00427415 0.649898 2.1809 0
0.303122 0.148226 0.0103258 0.649898 2.1809 0
0.303083 0.145664 0.00446303 0.664312 2.16223 0
0.303083 0.145664 0.010137 0.664312 2.16223 0
0.302842 0.150094 0.0146 0.645104 2.18272 0
0.302842 0.150094 0.00896789 0.645104 2.18272 0
0.302842 0.150094 0 0.645104 2.18272 0
0.302789 0.14752 0 0.662234 2.15931 0
0.302789 0.14752 0.0146 0.662234 2.15931 0
0.313 0.145451 0 0.622217 2.08674 0
0.312495 0.149022 0.0121461 0.60569 2.11664 0
0.312495 0.149022 0.00245386 0.60569 2.11664 0
0.313 0.145451 0.00397455 0.622217 2.08674 0
0.313 0.145451 0.0146 0.622217 2.08674 0
0.311826 0.150094 0.0146 0.600611 2.13464 0
0.311826 0.150094 0.0088908 0.600611 2.13464 0
0.311826 0.150094 0 0.600611 2.13464 0
0.312127 0.148239 0 0.608179 2.11913 0
0.312127 0.148239 0.0146 0.608179 2.11913 0
0.313383 0.144528 0 0.616532 2.06055 0
0.313198 0.144136 0.000966777 0.62856 2.07019 0