# p  POINT_DATA 582
# x y z  p
0.330105 0.0460483 0 96375
0.325605 0.0460849 0.00465775 96377.5
0.325605 0.0460849 0.00994225 96377.5
0.330105 0.0460483 0.00985321 96375
0.330105 0.0460483 0.0146 96375
0.320955 0.0458911 0.00947084 96385.8
0.320955 0.0458911 0.00512916 96385.8
0.315999 0.045523 0.0146 96391.1
0.315999 0.045523 0.00857499 96391.1
0.315999 0.045523 0 96391.1
0.325254 0.0459355 0 96375.2
0.325254 0.0459355 0.0146 96375.2
0.34421 0.0472458 0 96370.1
0.342644 0.0473328 0.00162106 96371.2
0.342644 0.0473328 0.0129789 96371.2
0.34421 0.0472458 0.0127672 96370.1
0.34421 0.0472458 0.0146 96370.1
0.333254 0.0466596 0.0113408 96376.1
0.333254 0.0466596 0.00325921 96376.1
0.342155 0.047125 0 96370.3
0.342155 0.047125 0.0146 96370.3
0.345217 0.0475707 0.0135579 96370.3
0.358237 0.047999 0.0146 96368
0.345217 0.0475707 0.0010421 96370.3
0.358237 0.047999 0.0145188 96368
0.358237 0.047999 0 96368
0.372421 0.0479409 0 96369
0.372326 0.0479586 9.81341e-05 96369.1
0.372326 0.0479586 0.0145019 96369.1
0.372421 0.0479409 0.0144586 96369
0.372421 0.0479409 0.0146 96369
0.359343 0.047999 0.0146 96368
0.359343 0.047999 0.00106406 96368
0.359343 0.047999 0 96368
0.372286 0.0479418 0 96369
0.372286 0.0479418 0.0146 96369
0.37251 0.0479608 0.0145072 96369.1
0.373665 0.047999 0.0146 96369.1
0.37251 0.0479608 9.28151e-05 96369.1
0.373665 0.047999 0.00128817 96369.1
0.373665 0.047999 0 96369.1
0.114261 0.0607098 0 96413.3
0.114231 0.0607308 0.0145656 96413.1
0.114231 0.0607308 3.44163e-05 96413.1
0.114261 0.0607098 0.0145416 96413.3
0.114261 0.0607098 0.0146 96413.3
0.108181 0.0607609 0.0146 96413
0.108181 0.0607609 0.00760869 96413
0.108181 0.0607609 0 96413
0.11421 0.06071 0 96413.3
0.11421 0.06071 0.0146 96413.3
0.126957 0.060703 0 96413.6
0.126922 0.0607266 0.0145607 96413.4
0.126922 0.0607266 3.92519e-05 96413.4
0.126957 0.060703 0.0145338 96413.6
0.126957 0.060703 0.0146 96413.6
0.114291 0.0607306 0.0145654 96413.1
0.114291 0.0607306 3.46356e-05 96413.1
0.126899 0.060703 0 96413.6
0.126899 0.060703 0.0146 96413.6
0.12699 0.0607268 0.014561 96413.4
0.12699 0.0607268 3.90212e-05 96413.4
0.132113 0.0607609 0.0146 96413.7
0.132113 0.0607609 0.0059299 96413.7
0.132113 0.0607609 0 96413.7
0.0126957 0.0616085 0 96413.8
0.0126957 0.0616085 0.000969727 96413.8
0.0121875 0.0612717 0.000584432 96413.6
0.0121875 0.0612717 0.0140156 96413.6
0.0126957 0.0616085 0.0146 96413.8
0.000478698 0.0612421 0.0140495 96413.5
0 0.0615565 0.0146 96413.6
0.000478698 0.0612421 0.000550503 96413.5
0 0.0615565 0.000910245 96413.6
0 0.0615565 0 96413.6
0.000793602 0.0615586 0 96413.6
0.000793602 0.0615586 0.0146 96413.6
0.0253913 0.061639 0 96413.9
0.0253913 0.061639 0.00100463 96413.9
0.0248592 0.0612958 0.000611908 96413.8
0.0248592 0.0612958 0.0139881 96413.8
0.0253913 0.061639 0.0146 96413.9
0.0135403 0.0616099 0 96413.8
0.0132104 0.0612783 0.000591918 96413.6
0.0132104 0.0612783 0.0140081 96413.6
0.0135403 0.0616099 0.0146 96413.8
0.038087 0.061571 0 96413.8
0.038087 0.061571 0.000926781 96413.8
0.0375964 0.061254 0.000564147 96413.7
0.0375964 0.061254 0.0140359 96413.7
0.038087 0.061571 0.0146 96413.8
0.0262622 0.0616363 0 96413.9
0.0259208 0.0612931 0.000608915 96413.8
0.0259208 0.0612931 0.0139911 96413.8
0.0262622 0.0616363 0.0146 96413.9
0.0507826 0.0614599 0 96413.7
0.0507826 0.0614599 0.000799696 96413.7
0.0503607 0.061185 0.000485147 96413.6
0.0503607 0.061185 0.0141149 96413.6
0.0507826 0.0614599 0.0146 96413.7
0.0388889 0.061567 0 96413.8
0.0385725 0.061249 0.000558406 96413.7
0.0385725 0.061249 0.0140416 96413.7
0.0388889 0.061567 0.0146 96413.8
0.0634783 0.061316 0 96413.5
0.0634783 0.061316 0.000635037 96413.5
0.063145 0.0610959 0.000383281 96413.4
0.063145 0.0610959 0.0142167 96413.4
0.0634783 0.061316 0.0146 96413.5
0.0514736 0.0614555 0 96413.7
0.0511987 0.0611791 0.00047848 96413.6
0.0511987 0.0611791 0.0141215 96413.6
0.0514736 0.0614555 0.0146 96413.7
0.0761739 0.0611485 0 96413.3
0.0761739 0.0611485 0.000443446 96413.3
0.0759428 0.0609932 0.000265797 96413.3
0.0759428 0.0609932 0.0143342 96413.3
0.0761739 0.0611485 0.0146 96413.3
0.0640265 0.061312 0 96413.5
0.063806 0.0610903 0.0003769 96413.4
0.063806 0.0610903 0.0142231 96413.4
0.0640265 0.061312 0.0146 96413.5
0.0888696 0.0609742 0 96413.1
0.0888696 0.0609742 0.000244071 96413.1
0.0887434 0.0608877 0.000145124 96413.1
0.0887434 0.0608877 0.0144549 96413.1
0.0888696 0.0609742 0.0146 96413.1
0.0765567 0.0611457 0 96413.3
0.0764009 0.0609891 0.000261064 96413.3
0.0764009 0.0609891 0.0143389 96413.3
0.0765567 0.0611457 0.0146 96413.3
0.101565 0.060817 0 96413
0.101565 0.060817 6.41973e-05 96413
0.101532 0.060794 3.78519e-05 96413
0.101532 0.060794 0.0145621 96413
0.101565 0.060817 0.0146 96413
0.0890804 0.0609729 0 96413.1
0.0889936 0.0608856 0.000142662 96413.1
0.0889936 0.0608856 0.0144573 96413.1
0.0890804 0.0609729 0.0146 96413.1
0.101621 0.0608168 0 96413
0.101598 0.0607935 3.73389e-05 96413
0.101621 0.0608168 0.0146 96413
0.101598 0.0607935 0.0145627 96413
0.139652 0.0608462 0 96414.1
0.139652 0.0608462 9.76415e-05 96414.1
0.139603 0.0608104 5.66168e-05 96414.1
0.139603 0.0608104 0.0145434 96414.1
0.139652 0.0608462 0.0146 96414.1
0.152348 0.0611942 0 96415.4
0.152348 0.0611942 0.000495709 96415.4
0.152097 0.0610126 0.000287994 96415.3
0.152097 0.0610126 0.014312 96415.3
0.152348 0.0611942 0.0146 96415.4
0.139738 0.0608475 0 96414.1
0.139702 0.0608114 5.78056e-05 96414.1
0.139702 0.0608114 0.0145422 96414.1
0.139738 0.0608475 0.0146 96414.1
0.165043 0.0618028 0 96417.4
0.165043 0.0618028 0.00119199 96417.4
0.164435 0.0613721 0.000699254 96417.2
0.164435 0.0613721 0.0139007 96417.2
0.165043 0.0618028 0.0146 96417.4
0.152791 0.0612061 0 96415.3
0.15261 0.0610244 0.000301446 96415.3
0.15261 0.0610244 0.0142986 96415.3
0.152791 0.0612061 0.0146 96415.3
0.177739 0.0626755 0 96420.3
0.177739 0.0626755 0.00219032 96420.3
0.176596 0.0619104 0.00131507 96419.7
0.176596 0.0619104 0.0132849 96419.7
0.177739 0.0626755 0.0146 96420.3
0.166126 0.0618489 0 96417.3
0.165703 0.0614243 0.000758962 96417
0.165703 0.0614243 0.013841 96417
0.166126 0.0618489 0.0146 96417.3
0.190435 0.0639126 0 96423.4
0.190435 0.0639126 0.00360562 96423.4
0.188496 0.0627098 0.00222961 96421.8
0.188496 0.0627098 0.0123704 96421.8
0.190435 0.0639126 0.0146 96423.4
0.179782 0.0628149 0 96420.1
0.179038 0.0620663 0.00149343 96419.2
0.179038 0.0620663 0.0131066 96419.2
0.179782 0.0628149 0.0146 96420.1
0.20313 0.0657677 0 96426.4
0.20313 0.0657677 0.00572797 96426.4
0.19994 0.0639683 0.0073 96422
0.20313 0.0657677 0.0146 96426.4
0.194052 0.0643967 0 96422.5
0.192873 0.0632118 0.00280394 96419.7
0.192873 0.0632118 0.0117961 96419.7
0.194052 0.0643967 0.0146 96422.5
0.215826 0.0687406 0 96426.2
0.215826 0.0687406 0.00912905 96426.2
0.20937 0.0665967 0.00725862 96408.3
0.215826 0.0687406 0.0146 96426.2
0.209705 0.0673696 0 96423
0.209705 0.0673696 0.0146 96423
0.228522 0.0733569 0 96413.8
0.228371 0.0733708 0.0144261 96412.9
0.228371 0.0733708 0.000173878 96412.9
0.228522 0.0733569 0.0144102 96413.8
0.228522 0.0733569 0.0146 96413.8
0.218606 0.0707284 0.0114031 96409.4
0.218606 0.0707284 0.00319687 96409.4
0.228288 0.0732877 0 96413.7
0.228288 0.0732877 0.0146 96413.7
0.228594 0.07345 0.0145167 96413.1
0.228594 0.07345 8.33194e-05 96413.1
0.228939 0.0735228 0.0146 96413.3
0.228939 0.0735228 0.000479506 96413.3
0.228939 0.0735228 0 96413.3
0.241217 0.0778361 0 96417.8
0.241217 0.0778361 0.00493455 96417.8
0.238961 0.0757908 0.00259464 96417.4
0.238961 0.0757908 0.0120054 96417.4
0.241217 0.0778361 0.0146 96417.8
0.253913 0.0826556 0 96412.6
0.253913 0.0826556 0.0104481 96412.6
0.247407 0.0793935 0.00723949 96404.7
0.253913 0.0826556 0.0146 96412.6
0.248278 0.0806205 0 96412.4
0.248278 0.0806205 0.0146 96412.4
0.255619 0.0845699 0.0126381 96401.8
0.255619 0.0845699 0.00196187 96401.8
0.26229 0.0862847 0.0146 96402.8
0.26229 0.0862847 0.00963407 96402.8
0.26229 0.0862847 0 96402.8
0.266609 0.0881698 0 96403.1
0.266609 0.0881698 0.00215659 96403.1
0.265657 0.0872417 0.0010948 96403
0.265657 0.0872417 0.0135052 96403
0.266609 0.0881698 0.0146 96403.1
0.279304 0.0917848 0 96403.8
0.279304 0.0917848 0.00629225 96403.8
0.276011 0.089595 0.0073 96403.7
0.279304 0.0917848 0.0146 96403.8
0.2691 0.0887891 0 96402.9
0.268246 0.0879302 0.00188248 96402.9
0.268246 0.0879302 0.0127175 96402.9
0.2691 0.0887891 0.0146 96402.9
0.285944 0.0939502 0.007412 96400
0.292 0.0948764 0 96398.8
0.292 0.0948764 0.00982905 96398.8
0.292 0.0948764 0.0146 96398.8
0.286607 0.0936252 0 96402.1
0.286607 0.0936252 0.0146 96402.1
0.298 0.0971182 0 96395.1
0.297305 0.0975684 0.0129088 96397.1
0.297305 0.0975684 0.00169124 96397.1
0.298 0.0971182 0.0123937 96395.1
0.298 0.0971182 0.0146 96395.1
0.293204 0.0964859 0.0116704 96398
0.293204 0.0964859 0.00292964 96398
0.296925 0.0967596 0 96397.4
0.296925 0.0967596 0.0146 96397.4
0.304 0.0989572 0 96395.6
0.303973 0.0989899 0.014535 96395.7
0.303973 0.0989899 6.50024e-05 96395.7
0.304 0.0989572 0.0144976 96395.6
0.304 0.0989572 0.0146 96395.6
0.298496 0.0979923 0.0133937 96396.4
0.298496 0.0979923 0.00120629 96396.4
0.303952 0.0989444 0 96395.7
0.303952 0.0989444 0.0146 96395.7
0.30402 0.0990028 0.0145498 96395.7
0.30402 0.0990028 5.02016e-05 96395.7
0.304486 0.0990467 0.0146 96395.7
0.304486 0.0990467 0.00118387 96395.7
0.304486 0.0990467 0 96395.7
0.31 0.100008 0 96395.1
0.31 0.100008 0.00109927 96395.1
0.309754 0.0995686 0.000597038 96395.1
0.309754 0.0995686 0.014003 96395.1
0.31 0.100008 0.0146 96395.1
0.315999 0.0999784 0 96393
0.315999 0.0999784 0.00106596 96393
0.315749 0.0995801 0.000610251 96393.1
0.315749 0.0995801 0.0139897 96393.1
0.315999 0.0999784 0.0146 96393
0.310456 0.100018 0 96395.1
0.310261 0.0996024 0.000635803 96395.1
0.310261 0.0996024 0.0139642 96395.1
0.310456 0.100018 0.0146 96395.1
0.358315 0.0480081 0 96368
0.358309 0.0480046 6.3964e-06 96368
0.358315 0.0480081 1.05118e-05 96368
0.358309 0.0480046 0.0145936 96368
0.358315 0.0480081 0.0146 96368
0.358322 0.0480046 6.45853e-06 96368
0.358326 0.0480082 0 96368
0.358322 0.0480046 0.0145935 96368
0.358326 0.0480082 0.0146 96368
0.386526 0.0491554 0 96369.8
0.385774 0.0486794 0.000778387 96369.3
0.386526 0.0491554 0.00132302 96369.8
0.385774 0.0486794 0.0138216 96369.3
0.386526 0.0491554 0.0146 96369.8
0.400631 0.0514179 0 96369.4
0.398355 0.0500588 0.00235646 96369.3
0.400631 0.0514179 0.00391137 96369.4
0.398355 0.0500588 0.0122435 96369.3
0.400631 0.0514179 0.0146 96369.4
0.387431 0.0488174 0.000936374 96369.6
0.387958 0.0492942 0 96369.6
0.387431 0.0488174 0.0136636 96369.6
0.387958 0.0492942 0.0146 96369.6
0.414737 0.0550898 0 96367.3
0.410095 0.0521988 0.0073 96369.6
0.414737 0.0550898 0.00811213 96367.3
0.414737 0.0550898 0.0146 96367.3
0.403949 0.0510006 0.00343393 96369.8
0.405791 0.0526672 0 96368.3
0.403949 0.0510006 0.0111661 96369.8
0.405791 0.0526672 0.0146 96368.3
0.418109 0.0577096 0.0111092 96367.4
0.42517 0.0607609 0.0146 96367.4
0.418109 0.0577096 0.00349075 96367.4
0.42517 0.0607609 0.0107998 96367.4
0.42517 0.0607609 0 96367.4
0.428842 0.0630759 0 96366
0.427877 0.0616342 0.000999036 96366.7
0.428842 0.0630759 0.00264844 96366
0.427877 0.0616342 0.013601 96366.7
0.428842 0.0630759 0.0146 96366
0.434733 0.0681924 0.0073 96374.3
0.44028 0.0735228 0.0146 96361
0.44028 0.0735228 0.0118393 96361
0.44028 0.0735228 0 96361
0.442947 0.0763758 0 96360.2
0.44194 0.074434 0.00104245 96358.2
0.442947 0.0763758 0.00326394 96360.2
0.44194 0.074434 0.0135575 96358.2
0.442947 0.0763758 0.0146 96360.2
0.446643 0.0829411 0.0073 96362.6
0.451292 0.0862847 0.0146 96359.5
0.451292 0.0862847 0.00863718 96359.5
0.451292 0.0862847 0 96359.5
0.330105 0.0989015 0 96389.7
0.330022 0.098972 0.0145146 96389.9
0.330022 0.098972 8.54128e-05 96389.9
0.330105 0.0989015 0.0144339 96389.7
0.330105 0.0989015 0.0146 96389.7
0.328292 0.0990467 0.0146 96390.3
0.328292 0.0990467 0.0127232 96390.3
0.328292 0.0990467 0 96390.3
0.329954 0.0989107 0 96389.7
0.329954 0.0989107 0.0146 96389.7
0.34421 0.0974669 0 96384.5
0.343218 0.0981487 0.0135727 96387.3
0.343218 0.0981487 0.00102733 96387.3
0.34421 0.0974669 0.0127927 96384.5
0.34421 0.0974669 0.0146 96384.5
0.330206 0.0989552 0.0144953 96389.9
0.330206 0.0989552 0.000104696 96389.9
0.342593 0.0975832 0 96385.3
0.342593 0.0975832 0.0146 96385.3
0.358315 0.0963577 0 96380.4
0.356466 0.0973735 0.0126858 96384.9
0.356466 0.0973735 0.00191421 96384.9
0.358315 0.0963577 0.0115238 96380.4
0.358315 0.0963577 0.0146 96380.4
0.345398 0.0979718 0.0133704 96386.6
0.345398 0.0979718 0.00122965 96386.6
0.355513 0.0965116 0 96381.4
0.355513 0.0965116 0.0146 96381.4
0.372421 0.095694 0 96377.5
0.369924 0.0967875 0.0120154 96383.3
0.369924 0.0967875 0.00258456 96383.3
0.372421 0.095694 0.0107644 96377.5
0.372421 0.095694 0.0146 96377.5
0.360435 0.097129 0.0124062 96384.3
0.360435 0.097129 0.00219384 96384.3
0.368837 0.0958047 0 96378.4
0.368837 0.0958047 0.0146 96378.4
0.386526 0.095861 0 96372.6
0.383969 0.0967332 0.0119533 96379.5
0.383969 0.0967332 0.00264666 96379.5
0.386526 0.095861 0.0109555 96372.6
0.386526 0.095861 0.0146 96372.6
0.375047 0.0966706 0.0118817 96382.5
0.375047 0.0966706 0.00271832 96382.5
0.382935 0.0957973 0 96374.2
0.382935 0.0957973 0.0146 96374.2
0.400631 0.0985161 0 96366.7
0.400182 0.0986407 0.0141355 96367.8
0.400182 0.0986407 0.000464471 96367.8
0.400631 0.0985161 0.013993 96366.7
0.400631 0.0985161 0.0146 96366.7
0.388718 0.0970632 0.0123309 96374.5
0.388718 0.0970632 0.00226912 96374.5
0.399958 0.0984376 0 96367.3
0.399958 0.0984376 0.0146 96367.3
0.400913 0.0987921 0.0143087 96366.5
0.400913 0.0987921 0.000291281 96366.5
0.401668 0.0990467 0.0146 96366.5
0.401668 0.0990467 0.00107303 96366.5
0.401668 0.0990467 0 96366.5
0.457052 0.0942259 0 96368.8
0.454779 0.0883413 0.00235273 96360.3
0.457052 0.0942259 0.00908487 96368.8
0.454779 0.0883413 0.0122473 96360.3
0.457052 0.0942259 0.0146 96368.8
0.458534 0.0977066 0.0130669 96370.7
0.460616 0.0990467 0.0146 96371.8
0.458534 0.0977066 0.00153312 96370.7
0.460616 0.0990467 0.00368846 96371.8
0.460616 0.0990467 0 96371.8
0.317009 0.0999605 0 96393
0.316579 0.0995712 0.000600056 96393.1
0.317009 0.0999605 0.0146 96393
0.316579 0.0995712 0.0139999 96393.1
0.414737 0.105246 0 96362.8
0.414737 0.105246 0.00709238 96362.8
0.411667 0.101824 0.00317704 96366.3
0.411667 0.101824 0.011423 96366.3
0.414737 0.105246 0.0146 96362.8
0.417943 0.108908 0.0112815 96366.9
0.417943 0.108908 0.00331851 96366.9
0.423787 0.111809 0.0146 96363.3
0.423787 0.111809 0.00936791 96363.3
0.423787 0.111809 0 96363.3
0.464749 0.105656 0.00738703 96388.6
0.466938 0.111809 0.0146 96379.1
0.466938 0.111809 0.0102326 96379.1
0.466938 0.111809 0 96379.1
0.46348 0.104862 0 96374
0.46348 0.104862 0.0146 96374
0.428842 0.116232 0 96362.1
0.428842 0.116232 0.00506018 96362.1
0.427285 0.113217 0.00161119 96361.6
0.427285 0.113217 0.0129888 96361.6
0.428842 0.116232 0.0146 96362.1
0.432451 0.121305 0.0073 96363.5
0.43639 0.124571 0.0146 96365.2
0.43639 0.124571 0.00781302 96365.2
0.43639 0.124571 0 96365.2
0.470866 0.124307 0.000301935 96378.2
0.469034 0.11373 0.00219838 96379.1
0.470866 0.124307 0.0142981 96378.2
0.469034 0.11373 0.0124016 96379.1
0.470695 0.124571 0.0146 96378.2
0.470695 0.124571 0.014121 96378.2
0.470695 0.124571 0 96378.2
0.47058 0.124048 0 96378.2
0.47058 0.124048 0.0146 96378.2
0.442149 0.136611 0.000825711 96366.8
0.442149 0.136611 0.0137743 96366.8
0.439957 0.127276 0.00309539 96365.9
0.439957 0.127276 0.0115046 96365.9
0.441761 0.137332 0.0146 96366.8
0.441761 0.137332 0.0133721 96366.8
0.441761 0.137332 0 96366.8
0.441102 0.135663 0 96366.6
0.441102 0.135663 0.0146 96366.6
0.471158 0.129626 0 96379.5
0.470911 0.124794 0.000255182 96378.4
0.471158 0.129626 0.00578317 96379.5
0.470911 0.124794 0.0143448 96378.4
0.471158 0.129626 0.0146 96379.5
0.471568 0.136961 0.0141751 96381.2
0.471854 0.137332 0.0146 96381.2
0.471568 0.136961 0.0004249 96381.2
0.471854 0.137332 0.000720836 96381.2
0.471854 0.137332 0 96381.2
0.442947 0.142327 0 96367.8
0.442947 0.142327 0.00571436 96367.8
0.442331 0.13789 0.000637391 96366.8
0.442331 0.13789 0.0139626 96366.8
0.442947 0.142327 0.0146 96367.8
0.443869 0.14926 0.0136454 96369
0.443869 0.14926 0.000954633 96369
0.445701 0.150094 0.0146 96370.8
0.445701 0.150094 0.00285053 96370.8
0.445701 0.150094 0 96370.8
0.471158 0.139874 0 96381.5
0.46985 0.148912 0.0132467 96383.1
0.46985 0.148912 0.00135326 96383.1
0.471158 0.139874 0.00290783 96381.5
0.471158 0.139874 0.0146 96381.5
0.467498 0.150094 0.0146 96382
0.467498 0.150094 0.0108118 96382
0.467498 0.150094 0 96382
0.468686 0.147858 0 96381.7
0.468686 0.147858 0.0146 96381.7
0.471822 0.137934 0 96381.2
0.471583 0.137717 0.000439835 96381.2
0.471822 0.137934 0.0146 96381.2
0.471583 0.137717 0.0141602 96381.2
0.457052 0.158066 0 96376.6
0.453753 0.159871 0.0111851 96376
0.453753 0.159871 0.00341487 96376
0.457052 0.158066 0.00912023 96376.6
0.457052 0.158066 0.0146 96376.6
0.447265 0.158949 0.0073 96373.2
0.444794 0.151766 0.0019122 96370.9
0.444794 0.151766 0.0126878 96370.9
0.464684 0.156666 0.00711165 96384.8
0.46318 0.155639 0 96379.4
0.46318 0.155639 0.0146 96379.4
0.471158 0.188613 0 96364.5
0.470958 0.18856 0.000206169 96364.6
0.471158 0.188613 0.000266828 96364.5
0.470958 0.18856 0.0143938 96364.6
0.471158 0.188613 0.0146 96364.5
0.458941 0.199434 0.0126453 96361.9
0.458941 0.199434 0.00195467 96361.9
0.459729 0.201142 0.0146 96361.5
0.459729 0.201142 0.00277077 96361.5
0.459729 0.201142 0 96361.5
0.461017 0.191967 0.0073 96362.5
0.463418 0.19414 0 96361.6
0.463418 0.19414 0.0146 96361.6
0.485263 0.194878 0 96368.7
0.482989 0.190438 0.00235377 96366.2
0.485263 0.194878 0.00743379 96368.7
0.482989 0.190438 0.0122462 96366.2
0.485263 0.194878 0.0146 96368.7
0.471276 0.188488 0.000122981 96364.5
0.471666 0.18884 0 96364.7
0.471276 0.188488 0.014477 96364.5
0.471666 0.18884 0.0146 96364.7
0.487985 0.198679 0.0117821 96370
0.49056 0.201142 0.0146 96369.4
0.487985 0.198679 0.00281795 96370
0.49056 0.201142 0.00548296 96369.4
0.49056 0.201142 0 96369.4
0.457052 0.209204 0 96361.9
0.456291 0.213215 0.000788214 96362
0.456291 0.213215 0.0138118 96362
0.457052 0.209204 0.00922352 96361.9
0.457052 0.209204 0.0146 96361.9
0.455589 0.213904 0.0146 96361.9
0.455589 0.213904 0.013085 96361.9
0.455589 0.213904 0 96361.9
0.455813 0.212783 0 96361.9
0.455813 0.212783 0.0146 96361.9
0.458348 0.202314 0.00134114 96361.5
0.459411 0.203276 0 96362
0.458348 0.202314 0.0132589 96361.5
0.459411 0.203276 0.0146 96362
0.495309 0.20793 0.00745522 96372.7
0.494151 0.213904 0.0146 96369.3
0.494151 0.213904 0.00919978 96369.3
0.494151 0.213904 0 96369.3
0.492375 0.207577 0 96368.3
0.492375 0.207577 0.0146 96368.3
0.457052 0.224502 0 96371.7
0.457052 0.224502 0.0121249 96371.7
0.455626 0.215195 0.00147693 96362
0.455626 0.215195 0.0131231 96362
0.457052 0.224502 0.0146 96371.7
0.457216 0.226518 0.0144304 96373.4
0.457216 0.226518 0.000169609 96373.4
0.458387 0.226666 0.0146 96373.6
0.458387 0.226666 0.0013818 96373.6
0.458387 0.226666 0 96373.6
0.485263 0.224773 0 96368.3
0.484512 0.225987 0.0138231 96368.2
0.484512 0.225987 0.000776895 96368.2
0.485263 0.224773 0.012434 96368.3
0.485263 0.224773 0.0146 96368.3
0.480285 0.226666 0.0146 96369.8
0.480285 0.226666 0.00944724 96369.8
0.480285 0.226666 0 96369.8
0.483699 0.225251 0 96367.6
0.483699 0.225251 0.0146 96367.6
0.495016 0.219789 0.007111 96369.3
0.487082 0.22502 0.0127168 96368.9
0.487082 0.22502 0.00188321 96368.9
0.491852 0.219865 0 96365.9
0.491852 0.219865 0.0146 96365.9
0.471158 0.229166 0 96371.9
0.471158 0.229166 0.00286049 96371.9
0.468511 0.22906 0.00273914 96377.6
0.468511 0.22906 0.0118609 96377.6
0.471158 0.229166 0.0146 96371.9
0.473531 0.228813 0 96370.8
0.472794 0.228147 0.00169401 96372.9
0.473531 0.228813 0.0146 96370.8
0.472794 0.228147 0.012906 96372.9
