# U  POINT_DATA 582
# x y z  U_x U_y U_z
0.330105 0.0460483 0 0.37969 -0.102756 0
0.325605 0.0460849 0.00465775 0.421455 -0.120955 0
0.325605 0.0460849 0.00994225 0.421455 -0.120955 0
0.330105 0.0460483 0.00985321 0.37969 -0.102756 0
0.330105 0.0460483 0.0146 0.37969 -0.102756 0
0.320955 0.0458911 0.00947084 0.2817 -0.084341 0
0.320955 0.0458911 0.00512916 0.2817 -0.084341 0
0.315999 0.045523 0.0146 0 0 0
0.315999 0.045523 0.00857499 0 0 0
0.315999 0.045523 0 0 0 0
0.325254 0.0459355 0 0.300251 -0.0804171 0
0.325254 0.0459355 0.0146 0.300251 -0.0804171 0
0.34421 0.0472458 0 0.519868 -0.224421 0
0.342644 0.0473328 0.00162106 0.522022 -0.218478 0
0.342644 0.0473328 0.0129789 0.522022 -0.218478 0
0.34421 0.0472458 0.0127672 0.519868 -0.224421 0
0.34421 0.0472458 0.0146 0.519868 -0.224421 0
0.333254 0.0466596 0.0113408 0.449696 -0.147796 0
0.333254 0.0466596 0.00325921 0.449696 -0.147796 0
0.342155 0.047125 0 0.497762 -0.205241 0
0.342155 0.047125 0.0146 0.497762 -0.205241 0
0.345217 0.0475707 0.0135579 0.550463 -0.236261 0
0.358237 0.047999 0.0146 0.650952 -0.332572 0
0.345217 0.0475707 0.0010421 0.550463 -0.236261 0
0.358237 0.047999 0.0145188 0.650952 -0.332572 0
0.358237 0.047999 0 0.650952 -0.332572 0
0.372421 0.0479409 0 0.711949 -0.419126 0
0.372326 0.0479586 9.81341e-05 0.712659 -0.418627 0
0.372326 0.0479586 0.0145019 0.712659 -0.418627 0
0.372421 0.0479409 0.0144586 0.711949 -0.419126 0
0.372421 0.0479409 0.0146 0.711949 -0.419126 0
0.359343 0.047999 0.0146 0.656023 -0.339415 0
0.359343 0.047999 0.00106406 0.656023 -0.339415 0
0.359343 0.047999 0 0.656023 -0.339415 0
0.372286 0.0479418 0 0.711061 -0.41807 0
0.372286 0.0479418 0.0146 0.711061 -0.41807 0
0.37251 0.0479608 0.0145072 0.713131 -0.419621 0
0.373665 0.047999 0.0146 0.715534 -0.425684 0
0.37251 0.0479608 9.28151e-05 0.713131 -0.419621 0
0.373665 0.047999 0.00128817 0.715534 -0.425684 0
0.373665 0.047999 0 0.715534 -0.425684 0
0.114261 0.0607098 0 0.365958 -0.162397 0
0.114231 0.0607308 0.0145656 0.365877 -0.162475 0
0.114231 0.0607308 3.44163e-05 0.365877 -0.162475 0
0.114261 0.0607098 0.0145416 0.365958 -0.162397 0
0.114261 0.0607098 0.0146 0.365958 -0.162397 0
0.108181 0.0607609 0.0146 0.348133 -0.167801 0
0.108181 0.0607609 0.00760869 0.348133 -0.167801 0
0.108181 0.0607609 0 0.348133 -0.167801 0
0.11421 0.06071 0 0.365814 -0.162437 0
0.11421 0.06071 0.0146 0.365814 -0.162437 0
0.126957 0.060703 0 0.401253 -0.148276 0
0.126922 0.0607266 0.0145607 0.401169 -0.148372 0
0.126922 0.0607266 3.92519e-05 0.401169 -0.148372 0
0.126957 0.060703 0.0145338 0.401253 -0.148276 0
0.126957 0.060703 0.0146 0.401253 -0.148276 0
0.114291 0.0607306 0.0145654 0.366047 -0.162421 0
0.114291 0.0607306 3.46356e-05 0.366047 -0.162421 0
0.126899 0.060703 0 0.401098 -0.148334 0
0.126899 0.060703 0.0146 0.401098 -0.148334 0
0.12699 0.0607268 0.014561 0.401348 -0.148295 0
0.12699 0.0607268 3.90212e-05 0.401348 -0.148295 0
0.132113 0.0607609 0.0146 0.414573 -0.1411 0
0.132113 0.0607609 0.0059299 0.414573 -0.1411 0
0.132113 0.0607609 0 0.414573 -0.1411 0
0.0126957 0.0616085 0 0.0446777 -0.206416 0
0.0126957 0.0616085 0.000969727 0.0446777 -0.206416 0
0.0121875 0.0612717 0.000584432 0.0435038 -0.205568 0
0.0121875 0.0612717 0.0140156 0.0435038 -0.205568 0
0.0126957 0.0616085 0.0146 0.0446777 -0.206416 0
0.000478698 0.0612421 0.0140495 0.00205452 -0.0169884 0
0 0.0615565 0.0146 0 0 0
0.000478698 0.0612421 0.000550503 0.00205452 -0.0169884 0
0 0.0615565 0.000910245 0 0 0
0 0.0615565 0 0 0 0
0.000793602 0.0615586 0 0.00258086 -0.0151553 0
0.000793602 0.0615586 0.0146 0.00258086 -0.0151553 0
0.0253913 0.061639 0 0.083894 -0.205177 0
0.0253913 0.061639 0.00100463 0.083894 -0.205177 0
0.0248592 0.0612958 0.000611908 0.0826104 -0.204312 0
0.0248592 0.0612958 0.0139881 0.0826104 -0.204312 0
0.0253913 0.061639 0.0146 0.083894 -0.205177 0
0.0135403 0.0616099 0 0.0470581 -0.206303 0
0.0132104 0.0612783 0.000591918 0.046391 -0.205448 0
0.0132104 0.0612783 0.0140081 0.046391 -0.205448 0
0.0135403 0.0616099 0.0146 0.0470581 -0.206303 0
0.038087 0.061571 0 0.12646 -0.203269 0
0.038087 0.061571 0.000926781 0.12646 -0.203269 0
0.0375964 0.061254 0.000564147 0.12544 -0.202478 0
0.0375964 0.061254 0.0140359 0.12544 -0.202478 0
0.038087 0.061571 0.0146 0.12646 -0.203269 0
0.0262622 0.0616363 0 0.0866934 -0.205085 0
0.0259208 0.0612931 0.000608915 0.0862251 -0.204202 0
0.0259208 0.0612931 0.0139911 0.0862251 -0.204202 0
0.0262622 0.0616363 0.0146 0.0866934 -0.205085 0
0.0507826 0.0614599 0 0.168075 -0.199994 0
0.0507826 0.0614599 0.000799696 0.168075 -0.199994 0
0.0503607 0.061185 0.000485147 0.167429 -0.199366 0
0.0503607 0.061185 0.0141149 0.167429 -0.199366 0
0.0507826 0.0614599 0.0146 0.168075 -0.199994 0
0.0388889 0.061567 0 0.128873 -0.203036 0
0.0385725 0.061249 0.000558406 0.128688 -0.202269 0
0.0385725 0.061249 0.0140416 0.128688 -0.202269 0
0.0388889 0.061567 0.0146 0.128873 -0.203036 0
0.0634783 0.061316 0 0.209147 -0.195547 0
0.0634783 0.061316 0.000635037 0.209147 -0.195547 0
0.063145 0.0610959 0.000383281 0.208812 -0.195083 0
0.063145 0.0610959 0.0142167 0.208812 -0.195083 0
0.0634783 0.061316 0.0146 0.209147 -0.195547 0
0.0514736 0.0614555 0 0.170128 -0.199733 0
0.0511987 0.0611791 0.00047848 0.170168 -0.199104 0
0.0511987 0.0611791 0.0141215 0.170168 -0.199104 0
0.0514736 0.0614555 0.0146 0.170128 -0.199733 0
0.0761739 0.0611485 0 0.249761 -0.189863 0
0.0761739 0.0611485 0.000443446 0.249761 -0.189863 0
0.0759428 0.0609932 0.000265797 0.249631 -0.189564 0
0.0759428 0.0609932 0.0143342 0.249631 -0.189564 0
0.0761739 0.0611485 0.0146 0.249761 -0.189863 0
0.0640265 0.061312 0 0.210785 -0.195285 0
0.063806 0.0610903 0.0003769 0.210946 -0.194814 0
0.063806 0.0610903 0.0142231 0.210946 -0.194814 0
0.0640265 0.061312 0.0146 0.210785 -0.195285 0
0.0888696 0.0609742 0 0.289699 -0.182692 0
0.0888696 0.0609742 0.000244071 0.289699 -0.182692 0
0.0887434 0.0608877 0.000145124 0.289678 -0.182551 0
0.0887434 0.0608877 0.0144549 0.289678 -0.182551 0
0.0888696 0.0609742 0.0146 0.289699 -0.182692 0
0.0765567 0.0611457 0 0.250903 -0.189621 0
0.0764009 0.0609891 0.000261064 0.25109 -0.189328 0
0.0764009 0.0609891 0.0143389 0.25109 -0.189328 0
0.0765567 0.0611457 0.0146 0.250903 -0.189621 0
0.101565 0.060817 0 0.328625 -0.173686 0
0.101565 0.060817 6.41973e-05 0.328625 -0.173686 0
0.101532 0.060794 3.78519e-05 0.328628 -0.173658 0
0.101532 0.060794 0.0145621 0.328628 -0.173658 0
0.101565 0.060817 0.0146 0.328625 -0.173686 0
0.0890804 0.0609729 0 0.290331 -0.182516 0
0.0889936 0.0608856 0.000142662 0.290459 -0.182387 0
0.0889936 0.0608856 0.0144573 0.290459 -0.182387 0
0.0890804 0.0609729 0.0146 0.290331 -0.182516 0
0.101621 0.0608168 0 0.328787 -0.173624 0
0.101598 0.0607935 3.73389e-05 0.328827 -0.173604 0
0.101621 0.0608168 0.0146 0.328787 -0.173624 0
0.101598 0.0607935 0.0145627 0.328827 -0.173604 0
0.139652 0.0608462 0 0.433862 -0.130538 0
0.139652 0.0608462 9.76415e-05 0.433862 -0.130538 0
0.139603 0.0608104 5.66168e-05 0.43392 -0.130597 0
0.139603 0.0608104 0.0145434 0.43392 -0.130597 0
0.139652 0.0608462 0.0146 0.433862 -0.130538 0
0.152348 0.0611942 0 0.462712 -0.108015 0
0.152348 0.0611942 0.000495709 0.462712 -0.108015 0
0.152097 0.0610126 0.000287994 0.463135 -0.10857 0
0.152097 0.0610126 0.014312 0.463135 -0.10857 0
0.152348 0.0611942 0.0146 0.462712 -0.108015 0
0.139738 0.0608475 0 0.434056 -0.130342 0
0.139702 0.0608114 5.78056e-05 0.434174 -0.130427 0
0.139702 0.0608114 0.0145422 0.434174 -0.130427 0
0.139738 0.0608475 0.0146 0.434056 -0.130342 0
0.165043 0.0618028 0 0.48738 -0.079353 0
0.165043 0.0618028 0.00119199 0.48738 -0.079353 0
0.164435 0.0613721 0.000699254 0.488686 -0.0814014 0
0.164435 0.0613721 0.0139007 0.488686 -0.0814014 0
0.165043 0.0618028 0.0146 0.48738 -0.079353 0
0.152791 0.0612061 0 0.463609 -0.106774 0
0.15261 0.0610244 0.000301446 0.464329 -0.107475 0
0.15261 0.0610244 0.0142986 0.464329 -0.107475 0
0.152791 0.0612061 0.0146 0.463609 -0.106774 0
0.177739 0.0626755 0 0.506977 -0.0425167 0
0.177739 0.0626755 0.00219032 0.506977 -0.0425167 0
0.176596 0.0619104 0.00131507 0.51041 -0.0480473 0
0.176596 0.0619104 0.0132849 0.51041 -0.0480473 0
0.177739 0.0626755 0.0146 0.506977 -0.0425167 0
0.166126 0.0618489 0 0.489104 -0.0755368 0
0.165703 0.0614243 0.000758962 0.491451 -0.0780533 0
0.165703 0.0614243 0.013841 0.491451 -0.0780533 0
0.166126 0.0618489 0.0146 0.489104 -0.0755368 0
0.190435 0.0639126 0 0.506234 0.00536773 0
0.190435 0.0639126 0.00360562 0.506234 0.00536773 0
0.188496 0.0627098 0.00222961 0.52571 -0.00920154 0
0.188496 0.0627098 0.0123704 0.52571 -0.00920154 0
0.190435 0.0639126 0.0146 0.506234 0.00536773 0
0.179782 0.0628149 0 0.501845 -0.0323649 0
0.179038 0.0620663 0.00149343 0.515118 -0.0401614 0
0.179038 0.0620663 0.0131066 0.515118 -0.0401614 0
0.179782 0.0628149 0.0146 0.501845 -0.0323649 0
0.20313 0.0657677 0 0.486517 0.0578313 0
0.20313 0.0657677 0.00572797 0.486517 0.0578313 0
0.19994 0.0639683 0.0073 0.529724 0.0303088 0
0.20313 0.0657677 0.0146 0.486517 0.0578313 0
0.194052 0.0643967 0 0.497557 0.0215545 0
0.192873 0.0632118 0.00280394 0.529042 0.00555568 0
0.192873 0.0632118 0.0117961 0.529042 0.00555568 0
0.194052 0.0643967 0.0146 0.497557 0.0215545 0
0.215826 0.0687406 0 0.477317 0.100958 0
0.215826 0.0687406 0.00912905 0.477317 0.100958 0
0.20937 0.0665967 0.00725862 0.525167 0.0593063 0
0.215826 0.0687406 0.0146 0.477317 0.100958 0
0.209705 0.0673696 0 0.488883 0.077877 0
0.209705 0.0673696 0.0146 0.488883 0.077877 0
0.228522 0.0733569 0 0.469525 0.135941 0
0.228371 0.0733708 0.0144261 0.470191 0.135113 0
0.228371 0.0733708 0.000173878 0.470191 0.135113 0
0.228522 0.0733569 0.0144102 0.469525 0.135941 0
0.228522 0.0733569 0.0146 0.469525 0.135941 0
0.218606 0.0707284 0.0114031 0.481581 0.102912 0
0.218606 0.0707284 0.00319687 0.481581 0.102912 0
0.228288 0.0732877 0 0.469918 0.135195 0
0.228288 0.0732877 0.0146 0.469918 0.135195 0
0.228594 0.07345 0.0145167 0.469575 0.136004 0
0.228594 0.07345 8.33194e-05 0.469575 0.136004 0
0.228939 0.0735228 0.0146 0.469332 0.13708 0
0.228939 0.0735228 0.000479506 0.469332 0.13708 0
0.228939 0.0735228 0 0.469332 0.13708 0
0.241217 0.0778361 0 0.441885 0.173483 0
0.241217 0.0778361 0.00493455 0.441885 0.173483 0
0.238961 0.0757908 0.00259464 0.461557 0.167058 0
0.238961 0.0757908 0.0120054 0.461557 0.167058 0
0.241217 0.0778361 0.0146 0.441885 0.173483 0
0.253913 0.0826556 0 0.427603 0.187486 0
0.253913 0.0826556 0.0104481 0.427603 0.187486 0
0.247407 0.0793935 0.00723949 0.457417 0.193373 0
0.253913 0.0826556 0.0146 0.427603 0.187486 0
0.248278 0.0806205 0 0.434849 0.176336 0
0.248278 0.0806205 0.0146 0.434849 0.176336 0
0.255619 0.0845699 0.0126381 0.426763 0.188819 0
0.255619 0.0845699 0.00196187 0.426763 0.188819 0
0.26229 0.0862847 0.0146 0.450425 0.183042 0
0.26229 0.0862847 0.00963407 0.450425 0.183042 0
0.26229 0.0862847 0 0.450425 0.183042 0
0.266609 0.0881698 0 0.477436 0.16964 0
0.266609 0.0881698 0.00215659 0.477436 0.16964 0
0.265657 0.0872417 0.0010948 0.463937 0.179411 0
0.265657 0.0872417 0.0135052 0.463937 0.179411 0
0.266609 0.0881698 0.0146 0.477436 0.16964 0
0.279304 0.0917848 0 0.513438 0.150253 0
0.279304 0.0917848 0.00629225 0.513438 0.150253 0
0.276011 0.089595 0.0073 0.503382 0.169015 0
0.279304 0.0917848 0.0146 0.513438 0.150253 0
0.2691 0.0887891 0 0.47449 0.169775 0
0.268246 0.0879302 0.00188248 0.472478 0.177604 0
0.268246 0.0879302 0.0127175 0.472478 0.177604 0
0.2691 0.0887891 0.0146 0.47449 0.169775 0
0.285944 0.0939502 0.007412 0.535297 0.13703 0
0.292 0.0948764 0 0.549951 0.1055 0
0.292 0.0948764 0.00982905 0.549951 0.1055 0
0.292 0.0948764 0.0146 0.549951 0.1055 0
0.286607 0.0936252 0 0.530821 0.123142 0
0.286607 0.0936252 0.0146 0.530821 0.123142 0
0.298 0.0971182 0 0.564471 0.0506729 0
0.297305 0.0975684 0.0129088 0.556418 0.0582039 0
0.297305 0.0975684 0.00169124 0.556418 0.0582039 0
0.298 0.0971182 0.0123937 0.564471 0.0506729 0
0.298 0.0971182 0.0146 0.564471 0.0506729 0
0.293204 0.0964859 0.0116704 0.545003 0.0977754 0
0.293204 0.0964859 0.00292964 0.545003 0.0977754 0
0.296925 0.0967596 0 0.559911 0.0597381 0
0.296925 0.0967596 0.0146 0.559911 0.0597381 0
0.304 0.0989572 0 0.576643 -0.0135294 0
0.303973 0.0989899 0.014535 0.576232 -0.013244 0
0.303973 0.0989899 6.50024e-05 0.576232 -0.013244 0
0.304 0.0989572 0.0144976 0.576643 -0.0135294 0
0.304 0.0989572 0.0146 0.576643 -0.0135294 0
0.298496 0.0979923 0.0133937 0.560222 0.0462506 0
0.298496 0.0979923 0.00120629 0.560222 0.0462506 0
0.303952 0.0989444 0 0.576472 -0.0130629 0
0.303952 0.0989444 0.0146 0.576472 -0.0130629 0
0.30402 0.0990028 0.0145498 0.576379 -0.0137461 0
0.30402 0.0990028 5.02016e-05 0.576379 -0.0137461 0
0.304486 0.0990467 0.0146 0.578064 -0.0181138 0
0.304486 0.0990467 0.00118387 0.578064 -0.0181138 0
0.304486 0.0990467 0 0.578064 -0.0181138 0
0.31 0.100008 0 0.629278 -0.0706451 0
0.31 0.100008 0.00109927 0.629278 -0.0706451 0
0.309754 0.0995686 0.000597038 0.596696 -0.0680935 0
0.309754 0.0995686 0.014003 0.596696 -0.0680935 0
0.31 0.100008 0.0146 0.629278 -0.0706451 0
0.315999 0.0999784 0 0.66879 -0.139928 0
0.315999 0.0999784 0.00106596 0.66879 -0.139928 0
0.315749 0.0995801 0.000610251 0.636205 -0.134329 0
0.315749 0.0995801 0.0139897 0.636205 -0.134329 0
0.315999 0.0999784 0.0146 0.66879 -0.139928 0
0.310456 0.100018 0 0.632184 -0.0773444 0
0.310261 0.0996024 0.000635803 0.59867 -0.0722547 0
0.310261 0.0996024 0.0139642 0.59867 -0.0722547 0
0.310456 0.100018 0.0146 0.632184 -0.0773444 0
0.358315 0.0480081 0 0.651604 -0.333163 0
0.358309 0.0480046 6.3964e-06 0.65153 -0.333112 0
0.358315 0.0480081 1.05118e-05 0.651604 -0.333163 0
0.358309 0.0480046 0.0145936 0.65153 -0.333112 0
0.358315 0.0480081 0.0146 0.651604 -0.333163 0
0.358322 0.0480046 6.45853e-06 0.651591 -0.333193 0
0.358326 0.0480082 0 0.651624 -0.333216 0
0.358322 0.0480046 0.0145935 0.651591 -0.333193 0
0.358326 0.0480082 0.0146 0.651624 -0.333216 0
0.386526 0.0491554 0 0.745048 -0.493101 0
0.385774 0.0486794 0.000778387 0.741343 -0.489177 0
0.386526 0.0491554 0.00132302 0.745048 -0.493101 0
0.385774 0.0486794 0.0138216 0.741343 -0.489177 0
0.386526 0.0491554 0.0146 0.745048 -0.493101 0
0.400631 0.0514179 0 0.767049 -0.569075 0
0.398355 0.0500588 0.00235646 0.759189 -0.557969 0
0.400631 0.0514179 0.00391137 0.767049 -0.569075 0
0.398355 0.0500588 0.0122435 0.759189 -0.557969 0
0.400631 0.0514179 0.0146 0.767049 -0.569075 0
0.387431 0.0488174 0.000936374 0.744039 -0.496659 0
0.387958 0.0492942 0 0.746551 -0.498984 0
0.387431 0.0488174 0.0136636 0.744039 -0.496659 0
0.387958 0.0492942 0.0146 0.746551 -0.498984 0
0.414737 0.0550898 0 0.782372 -0.671657 0
0.410095 0.0521988 0.0073 0.775154 -0.644699 0
0.414737 0.0550898 0.00811213 0.782372 -0.671657 0
0.414737 0.0550898 0.0146 0.782372 -0.671657 0
0.403949 0.0510006 0.00343393 0.765612 -0.579873 0
0.405791 0.0526672 0 0.76848 -0.584815 0
0.403949 0.0510006 0.0111661 0.765612 -0.579873 0
0.405791 0.0526672 0.0146 0.76848 -0.584815 0
0.418109 0.0577096 0.0111092 0.772576 -0.609139 0
0.42517 0.0607609 0.0146 0.69236 -0.764307 0
0.418109 0.0577096 0.00349075 0.772576 -0.609139 0
0.42517 0.0607609 0.0107998 0.69236 -0.764307 0
0.42517 0.0607609 0 0.69236 -0.764307 0
0.428842 0.0630759 0 0.68638 -0.792332 0
0.427877 0.0616342 0.000999036 0.678257 -0.794999 0
0.428842 0.0630759 0.00264844 0.68638 -0.792332 0
0.427877 0.0616342 0.013601 0.678257 -0.794999 0
0.428842 0.0630759 0.0146 0.68638 -0.792332 0
0.434733 0.0681924 0.0073 0.769211 -0.68559 0
0.44028 0.0735228 0.0146 0.648747 -0.795556 0
0.44028 0.0735228 0.0118393 0.648747 -0.795556 0
0.44028 0.0735228 0 0.648747 -0.795556 0
0.442947 0.0763758 0 0.659882 -0.799067 0
0.44194 0.074434 0.00104245 0.641462 -0.80601 0
0.442947 0.0763758 0.00326394 0.659882 -0.799067 0
0.44194 0.074434 0.0135575 0.641462 -0.80601 0
0.442947 0.0763758 0.0146 0.659882 -0.799067 0
0.446643 0.0829411 0.0073 0.798224 -0.717724 0
0.451292 0.0862847 0.0146 0.713196 -0.702325 0
0.451292 0.0862847 0.00863718 0.713196 -0.702325 0
0.451292 0.0862847 0 0.713196 -0.702325 0
0.330105 0.0989015 0 0.699827 -0.230188 0
0.330022 0.098972 0.0145146 0.699361 -0.229472 0
0.330022 0.098972 8.54128e-05 0.699361 -0.229472 0
0.330105 0.0989015 0.0144339 0.699827 -0.230188 0
0.330105 0.0989015 0.0146 0.699827 -0.230188 0
0.328292 0.0990467 0.0146 0.691862 -0.218014 0
0.328292 0.0990467 0.0127232 0.691862 -0.218014 0
0.328292 0.0990467 0 0.691862 -0.218014 0
0.329954 0.0989107 0 0.699408 -0.228948 0
0.329954 0.0989107 0.0146 0.699408 -0.228948 0
0.34421 0.0974669 0 0.753864 -0.316076 0
0.343218 0.0981487 0.0135727 0.750349 -0.307559 0
0.343218 0.0981487 0.00102733 0.750349 -0.307559 0
0.34421 0.0974669 0.0127927 0.753864 -0.316076 0
0.34421 0.0974669 0.0146 0.753864 -0.316076 0
0.330206 0.0989552 0.0144953 0.699995 -0.230757 0
0.330206 0.0989552 0.000104696 0.699995 -0.230757 0
0.342593 0.0975832 0 0.750185 -0.304157 0
0.342593 0.0975832 0.0146 0.750185 -0.304157 0
0.358315 0.0963577 0 0.800344 -0.397714 0
0.356466 0.0973735 0.0126858 0.796037 -0.383782 0
0.356466 0.0973735 0.00191421 0.796037 -0.383782 0
0.358315 0.0963577 0.0115238 0.800344 -0.397714 0
0.358315 0.0963577 0.0146 0.800344 -0.397714 0
0.345398 0.0979718 0.0133704 0.756701 -0.321932 0
0.345398 0.0979718 0.00122965 0.756701 -0.321932 0
0.355513 0.0965116 0 0.794874 -0.379714 0
0.355513 0.0965116 0.0146 0.794874 -0.379714 0
0.372421 0.095694 0 0.839561 -0.469479 0
0.369924 0.0967875 0.0120154 0.83544 -0.453367 0
0.369924 0.0967875 0.00258456 0.83544 -0.453367 0
0.372421 0.095694 0.0107644 0.839561 -0.469479 0
0.372421 0.095694 0.0146 0.839561 -0.469479 0
0.360435 0.097129 0.0124062 0.806073 -0.406129 0
0.360435 0.097129 0.00219384 0.806073 -0.406129 0
0.368837 0.0958047 0 0.833079 -0.450536 0
0.368837 0.0958047 0.0146 0.833079 -0.450536 0
0.386526 0.095861 0 0.871304 -0.525824 0
0.383969 0.0967332 0.0119533 0.869444 -0.512357 0
0.383969 0.0967332 0.00264666 0.869444 -0.512357 0
0.386526 0.095861 0.0109555 0.871304 -0.525824 0
0.386526 0.095861 0.0146 0.871304 -0.525824 0
0.375047 0.0966706 0.0118817 0.847479 -0.477656 0
0.375047 0.0966706 0.00271832 0.847479 -0.477656 0
0.382935 0.0957973 0 0.865489 -0.510308 0
0.382935 0.0957973 0.0146 0.865489 -0.510308 0
0.400631 0.0985161 0 0.902252 -0.564905 0
0.400182 0.0986407 0.0141355 0.902389 -0.563182 0
0.400182 0.0986407 0.000464471 0.902389 -0.563182 0
0.400631 0.0985161 0.013993 0.902252 -0.564905 0
0.400631 0.0985161 0.0146 0.902252 -0.564905 0
0.388718 0.0970632 0.0123309 0.878494 -0.532141 0
0.388718 0.0970632 0.00226912 0.878494 -0.532141 0
0.399958 0.0984376 0 0.90142 -0.562502 0
0.399958 0.0984376 0.0146 0.90142 -0.562502 0
0.400913 0.0987921 0.0143087 0.903241 -0.565746 0
0.400913 0.0987921 0.000291281 0.903241 -0.565746 0
0.401668 0.0990467 0.0146 0.904236 -0.56729 0
0.401668 0.0990467 0.00107303 0.904236 -0.56729 0
0.401668 0.0990467 0 0.904236 -0.56729 0
0.457052 0.0942259 0 0.735133 -0.737516 0
0.454779 0.0883413 0.00235273 0.701405 -0.707101 0
0.457052 0.0942259 0.00908487 0.735133 -0.737516 0
0.454779 0.0883413 0.0122473 0.701405 -0.707101 0
0.457052 0.0942259 0.0146 0.735133 -0.737516 0
0.458534 0.0977066 0.0130669 0.759557 -0.781919 0
0.460616 0.0990467 0.0146 0.776621 -0.688088 0
0.458534 0.0977066 0.00153312 0.759557 -0.781919 0
0.460616 0.0990467 0.00368846 0.776621 -0.688088 0
0.460616 0.0990467 0 0.776621 -0.688088 0
0.317009 0.0999605 0 0.670578 -0.147041 0
0.316579 0.0995712 0.000600056 0.641476 -0.141265 0
0.317009 0.0999605 0.0146 0.670578 -0.147041 0
0.316579 0.0995712 0.0139999 0.641476 -0.141265 0
0.414737 0.105246 0 0.878563 -0.601942 0
0.414737 0.105246 0.00709238 0.878563 -0.601942 0
0.411667 0.101824 0.00317704 0.923889 -0.58629 0
0.411667 0.101824 0.011423 0.923889 -0.58629 0
0.414737 0.105246 0.0146 0.878563 -0.601942 0
0.417943 0.108908 0.0112815 0.88175 -0.604045 0
0.417943 0.108908 0.00331851 0.88175 -0.604045 0
0.423787 0.111809 0.0146 0.897854 -0.613952 0
0.423787 0.111809 0.00936791 0.897854 -0.613952 0
0.423787 0.111809 0 0.897854 -0.613952 0
0.464749 0.105656 0.00738703 0.834567 -0.731504 0
0.466938 0.111809 0.0146 0.809483 -0.649308 0
0.466938 0.111809 0.0102326 0.809483 -0.649308 0
0.466938 0.111809 0 0.809483 -0.649308 0
0.46348 0.104862 0 0.789476 -0.696678 0
0.46348 0.104862 0.0146 0.789476 -0.696678 0
0.428842 0.116232 0 0.947452 -0.651683 0
0.428842 0.116232 0.00506018 0.947452 -0.651683 0
0.427285 0.113217 0.00161119 0.935756 -0.614892 0
0.427285 0.113217 0.0129888 0.935756 -0.614892 0
0.428842 0.116232 0.0146 0.947452 -0.651683 0
0.432451 0.121305 0.0073 0.951917 -0.667364 0
0.43639 0.124571 0.0146 0.944913 -0.671419 0
0.43639 0.124571 0.00781302 0.944913 -0.671419 0
0.43639 0.124571 0 0.944913 -0.671419 0
0.470866 0.124307 0.000301935 0.860841 -0.715431 0
0.469034 0.11373 0.00219838 0.810298 -0.65193 0
0.470866 0.124307 0.0142981 0.860841 -0.715431 0
0.469034 0.11373 0.0124016 0.810298 -0.65193 0
0.470695 0.124571 0.0146 0.861244 -0.714296 0
0.470695 0.124571 0.014121 0.861244 -0.714296 0
0.470695 0.124571 0 0.861244 -0.714296 0
0.47058 0.124048 0 0.860749 -0.715097 0
0.47058 0.124048 0.0146 0.860749 -0.715097 0
0.442149 0.136611 0.000825711 0.918534 -0.60331 0
0.442149 0.136611 0.0137743 0.918534 -0.60331 0
0.439957 0.127276 0.00309539 0.922564 -0.621496 0
0.439957 0.127276 0.0115046 0.922564 -0.621496 0
0.441761 0.137332 0.0146 0.924543 -0.610599 0
0.441761 0.137332 0.0133721 0.924543 -0.610599 0
0.441761 0.137332 0 0.924543 -0.610599 0
0.441102 0.135663 0 0.924903 -0.61772 0
0.441102 0.135663 0.0146 0.924903 -0.61772 0
0.471158 0.129626 0 0.867222 -0.705442 0
0.470911 0.124794 0.000255182 0.861102 -0.714614 0
0.471158 0.129626 0.00578317 0.867222 -0.705442 0
0.470911 0.124794 0.0143448 0.861102 -0.714614 0
0.471158 0.129626 0.0146 0.867222 -0.705442 0
0.471568 0.136961 0.0141751 0.876916 -0.691909 0
0.471854 0.137332 0.0146 0.877101 -0.662497 0
0.471568 0.136961 0.0004249 0.876916 -0.691909 0
0.471854 0.137332 0.000720836 0.877101 -0.662497 0
0.471854 0.137332 0 0.877101 -0.662497 0
0.442947 0.142327 0 0.914348 -0.58808 0
0.442947 0.142327 0.00571436 0.914348 -0.58808 0
0.442331 0.13789 0.000637391 0.917737 -0.599191 0
0.442331 0.13789 0.0139626 0.917737 -0.599191 0
0.442947 0.142327 0.0146 0.914348 -0.58808 0
0.443869 0.14926 0.0136454 0.909489 -0.570509 0
0.443869 0.14926 0.000954633 0.909489 -0.570509 0
0.445701 0.150094 0.0146 0.907608 -0.575309 0
0.445701 0.150094 0.00285053 0.907608 -0.575309 0
0.445701 0.150094 0 0.907608 -0.575309 0
0.471158 0.139874 0 0.879718 -0.684665 0
0.46985 0.148912 0.0132467 0.887358 -0.662041 0
0.46985 0.148912 0.00135326 0.887358 -0.662041 0
0.471158 0.139874 0.00290783 0.879718 -0.684665 0
0.471158 0.139874 0.0146 0.879718 -0.684665 0
0.467498 0.150094 0.0146 0.889347 -0.651642 0
0.467498 0.150094 0.0108118 0.889347 -0.651642 0
0.467498 0.150094 0 0.889347 -0.651642 0
0.468686 0.147858 0 0.888571 -0.660593 0
0.468686 0.147858 0.0146 0.888571 -0.660593 0
0.471822 0.137934 0 0.880201 -0.66498 0
0.471583 0.137717 0.000439835 0.877803 -0.690129 0
0.471822 0.137934 0.0146 0.880201 -0.66498 0
0.471583 0.137717 0.0141602 0.877803 -0.690129 0
0.457052 0.158066 0 0.892459 -0.618964 0
0.453753 0.159871 0.0111851 0.894174 -0.598743 0
0.453753 0.159871 0.00341487 0.894174 -0.598743 0
0.457052 0.158066 0.00912023 0.892459 -0.618964 0
0.457052 0.158066 0.0146 0.892459 -0.618964 0
0.447265 0.158949 0.0073 0.900086 -0.562504 0
0.444794 0.151766 0.0019122 0.907313 -0.567605 0
0.444794 0.151766 0.0126878 0.907313 -0.567605 0
0.464684 0.156666 0.00711165 0.891309 -0.638721 0
0.46318 0.155639 0 0.878911 -0.656586 0
0.46318 0.155639 0.0146 0.878911 -0.656586 0
0.471158 0.188613 0 0.823074 -0.552656 0
0.470958 0.18856 0.000206169 0.823587 -0.551785 0
0.471158 0.188613 0.000266828 0.823074 -0.552656 0
0.470958 0.18856 0.0143938 0.823587 -0.551785 0
0.471158 0.188613 0.0146 0.823074 -0.552656 0
0.458941 0.199434 0.0126453 0.861916 -0.456235 0
0.458941 0.199434 0.00195467 0.861916 -0.456235 0
0.459729 0.201142 0.0146 0.860667 -0.455093 0
0.459729 0.201142 0.00277077 0.860667 -0.455093 0
0.459729 0.201142 0 0.860667 -0.455093 0
0.461017 0.191967 0.0073 0.851841 -0.499645 0
0.463418 0.19414 0 0.846321 -0.507926 0
0.463418 0.19414 0.0146 0.846321 -0.507926 0
0.485263 0.194878 0 0.799672 -0.564731 0
0.482989 0.190438 0.00235377 0.797662 -0.573371 0
0.485263 0.194878 0.00743379 0.799672 -0.564731 0
0.482989 0.190438 0.0122462 0.797662 -0.573371 0
0.485263 0.194878 0.0146 0.799672 -0.564731 0
0.471276 0.188488 0.000122981 0.822638 -0.553367 0
0.471666 0.18884 0 0.822293 -0.553146 0
0.471276 0.188488 0.014477 0.822638 -0.553367 0
0.471666 0.18884 0.0146 0.822293 -0.553146 0
0.487985 0.198679 0.0117821 0.793908 -0.554552 0
0.49056 0.201142 0.0146 0.816634 -0.370771 0
0.487985 0.198679 0.00281795 0.793908 -0.554552 0
0.49056 0.201142 0.00548296 0.816634 -0.370771 0
0.49056 0.201142 0 0.816634 -0.370771 0
0.457052 0.209204 0 0.852753 -0.431838 0
0.456291 0.213215 0.000788214 0.8476 -0.420972 0
0.456291 0.213215 0.0138118 0.8476 -0.420972 0
0.457052 0.209204 0.00922352 0.852753 -0.431838 0
0.457052 0.209204 0.0146 0.852753 -0.431838 0
0.455589 0.213904 0.0146 0.845914 -0.417028 0
0.455589 0.213904 0.013085 0.845914 -0.417028 0
0.455589 0.213904 0 0.845914 -0.417028 0
0.455813 0.212783 0 0.853322 -0.42416 0
0.455813 0.212783 0.0146 0.853322 -0.42416 0
0.458348 0.202314 0.00134114 0.863711 -0.448007 0
0.459411 0.203276 0 0.862069 -0.450409 0
0.458348 0.202314 0.0132589 0.863711 -0.448007 0
0.459411 0.203276 0.0146 0.862069 -0.450409 0
0.495309 0.20793 0.00745522 0.820075 -0.431371 0
0.494151 0.213904 0.0146 0.826651 -0.46758 0
0.494151 0.213904 0.00919978 0.826651 -0.46758 0
0.494151 0.213904 0 0.826651 -0.46758 0
0.492375 0.207577 0 0.813844 -0.490868 0
0.492375 0.207577 0.0146 0.813844 -0.490868 0
0.457052 0.224502 0 0.813173 -0.395735 0
0.457052 0.224502 0.0121249 0.813173 -0.395735 0
0.455626 0.215195 0.00147693 0.840891 -0.417238 0
0.455626 0.215195 0.0131231 0.840891 -0.417238 0
0.457052 0.224502 0.0146 0.813173 -0.395735 0
0.457216 0.226518 0.0144304 0.807286 -0.391345 0
0.457216 0.226518 0.000169609 0.807286 -0.391345 0
0.458387 0.226666 0.0146 0.810144 -0.39523 0
0.458387 0.226666 0.0013818 0.810144 -0.39523 0
0.458387 0.226666 0 0.810144 -0.39523 0
0.485263 0.224773 0 0.879736 -0.499734 0
0.484512 0.225987 0.0138231 0.882672 -0.497139 0
0.484512 0.225987 0.000776895 0.882672 -0.497139 0
0.485263 0.224773 0.012434 0.879736 -0.499734 0
0.485263 0.224773 0.0146 0.879736 -0.499734 0
0.480285 0.226666 0.0146 0.871384 -0.479726 0
0.480285 0.226666 0.00944724 0.871384 -0.479726 0
0.480285 0.226666 0 0.871384 -0.479726 0
0.483699 0.225251 0 0.881762 -0.49586 0
0.483699 0.225251 0.0146 0.881762 -0.49586 0
0.495016 0.219789 0.007111 0.845614 -0.471068 0
0.487082 0.22502 0.0127168 0.879574 -0.499858 0
0.487082 0.22502 0.00188321 0.879574 -0.499858 0
0.491852 0.219865 0 0.835847 -0.447035 0
0.491852 0.219865 0.0146 0.835847 -0.447035 0
0.471158 0.229166 0 0.863453 -0.477793 0
0.471158 0.229166 0.00286049 0.863453 -0.477793 0
0.468511 0.22906 0.00273914 0.831075 -0.424224 0
0.468511 0.22906 0.0118609 0.831075 -0.424224 0
0.471158 0.229166 0.0146 0.863453 -0.477793 0
0.473531 0.228813 0 0.828883 -0.467728 0
0.472794 0.228147 0.00169401 0.851999 -0.448315 0
0.473531 0.228813 0.0146 0.828883 -0.467728 0
0.472794 0.228147 0.012906 0.851999 -0.448315 0
