# p  POINT_DATA 977
# x y z  p
0.247476 0.0010027 0.00730663 99343.9
0.24726 0.00199996 0.0146 99349.3
0.24726 0.00199996 0.00624612 99349.3
0.24726 0.00199996 0 99349.3
0.247523 0 0 99357.3
0.247523 0 0.00715397 99357.3
0.247523 0 0.0146 99357.3
0.247401 0.000922606 0 99356.6
0.247401 0.000922606 0.0146 99356.6
0.246093 0.00369586 0.0123804 99343.7
0.245997 0.00399991 0.0146 99344.6
0.246093 0.00369586 0.00221963 99343.7
0.245997 0.00399991 0.00188944 99344.6
0.245997 0.00399991 0 99344.6
0.246749 0.00261414 0.0073 99346
0.246936 0.00270264 0 99350
0.246936 0.00270264 0.0146 99350
0.245449 0.00447869 0 99344.1
0.244662 0.00562757 0.0118822 99342.2
0.244662 0.00562757 0.00271782 99342.2
0.245449 0.00447869 0.00349514 99344.1
0.245449 0.00447869 0.0146 99344.1
0.243826 0.00599987 0.0146 99344.2
0.243826 0.00599987 0.00900052 99344.2
0.243826 0.00599987 0 99344.2
0.244216 0.00541714 0 99347.4
0.244216 0.00541714 0.0146 99347.4
0.245905 0.00421533 0 99344.7
0.245696 0.00411639 0.000850305 99344.6
0.245905 0.00421533 0.0146 99344.7
0.245696 0.00411639 0.0137497 99344.6
0.241217 0.00799602 0 99341.2
0.241215 0.00799868 0.0145917 99341.2
0.241215 0.00799868 8.33627e-06 99341.2
0.241217 0.00799602 0.0145722 99341.2
0.241217 0.00799602 0.0146 99341.2
0.241211 0.00799983 0.0146 99341.2
0.241211 0.00799983 0.0145793 99341.2
0.241211 0.00799983 0 99341.2
0.241213 0.00799754 0 99341.2
0.241213 0.00799754 0.0146 99341.2
0.243025 0.00685395 0 99345.4
0.242746 0.00672218 0.0073 99341.2
0.243025 0.00685395 0.0146 99345.4
0.239631 0.00925004 0.0073 99337
0.241206 0.00800516 3.89239e-05 99341.2
0.241206 0.00800516 0.0145611 99341.2
0.238313 0.00999978 0.0146 99342.1
0.238313 0.00999978 0.00457992 99342.1
0.238313 0.00999978 0 99342.1
0.239343 0.00911373 0 99346.4
0.239343 0.00911373 0.0146 99346.4
0.236986 0.0108346 0 99342
0.236232 0.0116436 0.0120002 99340.1
0.236232 0.0116436 0.00259984 99340.1
0.236986 0.0108346 0.00609456 99342
0.236986 0.0108346 0.0146 99342
0.235105 0.0119997 0.0146 99343.2
0.235105 0.0119997 0.00811104 99343.2
0.235105 0.0119997 0 99343.2
0.2357 0.0113922 0 99347.3
0.2357 0.0113922 0.0146 99347.3
0.237984 0.0104718 0 99342.7
0.237561 0.0102717 0.00198526 99342.4
0.237984 0.0104718 0.0146 99342.7
0.237561 0.0102717 0.0126147 99342.4
0.232754 0.0133609 0 99342.4
0.232304 0.0137873 0.0130494 99340.7
0.232304 0.0137873 0.00155062 99340.7
0.232754 0.0133609 0.00993694 99342.4
0.232754 0.0133609 0.0146 99342.4
0.231625 0.0139997 0.0146 99344.3
0.231625 0.0139997 0.0107057 99344.3
0.231625 0.0139997 0 99344.3
0.231918 0.0136048 0 99347.2
0.231918 0.0136048 0.0146 99347.2
0.234287 0.0127245 0 99344.7
0.233738 0.0124651 0.00339692 99343.6
0.234287 0.0127245 0.0146 99344.7
0.233738 0.0124651 0.0112031 99343.6
0.228522 0.0158798 0 99344
0.228437 0.0159595 0.0143065 99343.8
0.228437 0.0159595 0.000293484 99343.8
0.228522 0.0158798 0.0137253 99344
0.228522 0.0158798 0.0146 99344
0.228304 0.0159997 0.0146 99344.4
0.228304 0.0159997 0.0138471 99344.4
0.228304 0.0159997 0 99344.4
0.228352 0.0159192 0 99345.2
0.228352 0.0159192 0.0146 99345.2
0.230414 0.0148942 0 99348.5
0.230042 0.0147182 0.0073 99342.9
0.230414 0.0148942 0.0146 99348.5
0.226624 0.0171026 0.0073 99337.6
0.227805 0.0163386 0.00247415 99341.3
0.227805 0.0163386 0.0121259 99341.3
0.224984 0.0179996 0.0146 99346.2
0.224984 0.0179996 0.00239596 99346.2
0.224984 0.0179996 0 99346.2
0.226489 0.017039 0 99352
0.226489 0.017039 0.0146 99352
0.22429 0.0183876 0 99346.3
0.223057 0.0194168 0.0073 99342.8
0.22429 0.0183876 0.00283274 99346.3
0.22429 0.0183876 0.0146 99346.3
0.221561 0.0199996 0.0146 99349.5
0.221561 0.0199996 0.0051845 99349.5
0.221561 0.0199996 0 99349.5
0.222577 0.01919 0 99356
0.222577 0.01919 0.0146 99356
0.224816 0.0182483 0 99346.6
0.224564 0.0181293 0.000946687 99346.6
0.224816 0.0182483 0.0146 99346.6
0.224564 0.0181293 0.0136533 99346.6
0.220058 0.0208594 0 99349.1
0.219233 0.0216097 0.0117546 99345.8
0.219233 0.0216097 0.00284545 99345.8
0.220058 0.0208594 0.00627685 99349.1
0.220058 0.0208594 0.0146 99349.1
0.218103 0.0219995 0.0146 99353
0.218103 0.0219995 0.00785561 99353
0.218103 0.0219995 0 99353
0.218719 0.0213667 0 99358.9
0.218719 0.0213667 0.0146 99358.9
0.221124 0.0205032 0 99350.6
0.220662 0.020285 0.00208385 99350
0.221124 0.0205032 0.0146 99350.6
0.220662 0.020285 0.0125161 99350
0.215826 0.0234002 0 99351.6
0.215413 0.0238043 0.013175 99349.9
0.215413 0.0238043 0.00142497 99349.9
0.215826 0.0234002 0.0102253 99351.6
0.215826 0.0234002 0.0146 99351.6
0.214821 0.0239995 0.0146 99353.6
0.214821 0.0239995 0.0111332 99353.6
0.214821 0.0239995 0 99353.6
0.215068 0.0236411 0 99358.5
0.215068 0.0236411 0.0146 99358.5
0.217337 0.0227133 0 99356.2
0.216818 0.0224684 0.00342279 99352.9
0.217337 0.0227133 0.0146 99356.2
0.216818 0.0224684 0.0111772 99352.9
0.212298 0.025667 0.0121734 99347.2
0.211983 0.0259994 0.0146 99351.2
0.212298 0.025667 0.00242658 99347.2
0.211983 0.0259994 0.00134299 99351.2
0.211983 0.0259994 0 99351.2
0.213313 0.0248116 0.0073 99344.8
0.213575 0.0249355 0 99360.4
0.213575 0.0249355 0.0146 99360.4
0.211594 0.0262543 0 99351
0.210381 0.0274259 0.0073 99345.9
0.211594 0.0262543 0.00186041 99351
0.211594 0.0262543 0.0146 99351
0.209199 0.0279994 0.0146 99357.5
0.209199 0.0279994 0.00633677 99357.5
0.209199 0.0279994 0 99357.5
0.209959 0.0272265 0 99365.3
0.209959 0.0272265 0.0146 99365.3
0.211906 0.0261468 0 99351.4
0.211758 0.0260771 0.000566705 99351.4
0.211906 0.0261468 0.0146 99351.4
0.211758 0.0260771 0.0140333 99351.4
0.207362 0.0293794 0 99354.1
0.206986 0.0298217 0.0133031 99352
0.206986 0.0298217 0.00129695 99352
0.207362 0.0293794 0.0100743 99354.1
0.207362 0.0293794 0.0146 99354.1
0.206497 0.0299994 0.0146 99356.7
0.206497 0.0299994 0.0116163 99356.7
0.206497 0.0299994 0 99356.7
0.206683 0.0296781 0 99361.7
0.206683 0.0296781 0.0146 99361.7
0.208686 0.0286247 0 99360.2
0.208213 0.0284016 0.00293632 99357.1
0.208686 0.0286247 0.0146 99360.2
0.208213 0.0284016 0.0116637 99357.1
0.205364 0.0309685 0.00722493 99336.4
0.204262 0.0319993 0.0146 99355.9
0.204262 0.0319993 0.00390292 99355.9
0.204262 0.0319993 0 99355.9
0.205298 0.0310235 0 99365.6
0.205298 0.0310235 0.0146 99365.6
0.20313 0.0329784 0 99353.6
0.202577 0.0337378 0.0126916 99350.2
0.202577 0.0337378 0.00190837 99350.2
0.20313 0.0329784 0.0071479 99353.6
0.20313 0.0329784 0.0146 99353.6
0.201958 0.0339993 0.0146 99358.1
0.201958 0.0339993 0.010554 99358.1
0.201958 0.0339993 0 99358.1
0.202208 0.0335635 0 99364.4
0.202208 0.0335635 0.0146 99364.4
0.204019 0.0324193 0 99357.5
0.203656 0.0322478 0.00181421 99356.4
0.204019 0.0324193 0.0146 99357.5
0.203656 0.0322478 0.0127858 99356.4
0.200908 0.0350196 0.00734955 99335.3
0.200116 0.0359992 0.0146 99356.4
0.200116 0.0359992 0.00420027 99356.4
0.200116 0.0359992 0 99356.4
0.201011 0.0349975 0 99365.7
0.201011 0.0349975 0.0146 99365.7
0.198899 0.0372446 0 99353.3
0.198543 0.0378309 0.0133716 99350.8
0.198543 0.0378309 0.00122836 99350.8
0.198899 0.0372446 0.00909125 99353.3
0.198899 0.0372446 0.0146 99353.3
0.198131 0.0379992 0.0146 99357.4
0.198131 0.0379992 0.0119518 99357.4
0.198131 0.0379992 0 99357.4
0.19827 0.0377023 0 99361.5
0.19827 0.0377023 0.0146 99361.5
0.199873 0.03646 0 99358.3
0.199494 0.0362805 0.00205322 99356.8
0.199873 0.03646 0.0146 99358.3
0.199494 0.0362805 0.0125468 99356.8
0.1973 0.0392437 0.0073 99338.5
0.197895 0.0384736 0.00346312 99342.8
0.197895 0.0384736 0.0111369 99342.8
0.196467 0.0399991 0.0146 99359.2
0.196467 0.0399991 0.00621256 99359.2
0.196467 0.0399991 0 99359.2
0.197073 0.0391365 0 99367.2
0.197073 0.0391365 0.0146 99367.2
0.19489 0.0418935 0.013829 99353.2
0.194943 0.0419991 0.0146 99354.1
0.19489 0.0418935 0.000771043 99353.2
0.194943 0.0419991 0.000953339 99354.1
0.194943 0.0419991 0 99354.1
0.195642 0.0404599 0.0033639 99357.1
0.196088 0.0406707 0 99362.5
0.196088 0.0406707 0.0146 99362.5
0.195642 0.0404599 0.0112361 99357.1
0.194667 0.0423144 0 99353
0.193924 0.0436481 0.0120381 99346.1
0.193924 0.0436481 0.00256194 99346.1
0.194667 0.0423144 0.00230214 99353
0.194667 0.0423144 0.0146 99353
0.193294 0.043999 0.0146 99358.7
0.193294 0.043999 0.00986474 99358.7
0.193294 0.043999 0 99358.7
0.193572 0.0434818 0 99364.1
0.193572 0.0434818 0.0146 99364.1
0.194909 0.0421136 0 99354.2
0.194803 0.0420634 0.000469816 99354.1
0.194909 0.0421136 0.0146 99354.2
0.194803 0.0420634 0.0141302 99354.1
0.192658 0.044983 0.00726097 99332.5
0.192038 0.045999 0.0146 99358
0.192038 0.045999 0.00553098 99358
0.192038 0.045999 0 99358
0.192599 0.0450218 0 99365.2
0.192599 0.0450218 0.0146 99365.2
0.19059 0.0479254 0.0140633 99352.6
0.190628 0.047999 0.0146 99353.2
0.19059 0.0479254 0.000536669 99352.6
0.190628 0.047999 0.000666392 99353.2
0.190628 0.047999 0 99353.2
0.191339 0.0464262 0.00311832 99356.1
0.191747 0.0466192 0 99360.9
0.191747 0.0466192 0.0146 99360.9
0.191339 0.0464262 0.0114817 99356.1
0.190435 0.0483474 0 99352.8
0.189455 0.0512684 0.011221 99345.6
0.189455 0.0512684 0.00337896 99345.6
0.190435 0.0483474 0.00119602 99352.8
0.190435 0.0483474 0.0146 99352.8
0.188458 0.0522529 0.0146 99358.4
0.188458 0.0522529 0.00777844 99358.4
0.188458 0.0522529 0 99358.4
0.189003 0.0508133 0 99368.9
0.189003 0.0508133 0.0146 99368.9
0.190604 0.0481691 0 99353.3
0.190529 0.0480934 0.000324096 99353.2
0.190604 0.0481691 0.0146 99353.3
0.190529 0.0480934 0.0142759 99353.2
0.186203 0.0563491 0 99349.4
0.186162 0.0564655 0.0144578 99348.9
0.186162 0.0564655 0.000142201 99348.9
0.186203 0.0563491 0.0140584 99349.4
0.186203 0.0563491 0.0146 99349.4
0.186104 0.0565069 0.0146 99349.7
0.186104 0.0565069 0.0142603 99349.7
0.186104 0.0565069 0 99349.7
0.186121 0.0564241 0 99350.6
0.186121 0.0564241 0.0146 99350.6
0.187796 0.0538548 0 99363
0.187317 0.0533729 0.0073 99356
0.187796 0.0538548 0.0146 99363
0.184899 0.0594497 0.0073 99338.3
0.186084 0.0566268 0.000411424 99347.7
0.186084 0.0566268 0.0141886 99347.7
0.183902 0.0607609 0.0146 99354.4
0.183902 0.0607609 0.00666107 99354.4
0.183902 0.0607609 0 99354.4
0.18455 0.0590991 0 99365.6
0.18455 0.0590991 0.0146 99365.6
0.181971 0.0648465 0 99347.3
0.181932 0.0649755 0.014465 99346.9
0.181932 0.0649755 0.000134977 99346.9
0.181971 0.0648465 0.0140222 99347.3
0.181971 0.0648465 0.0146 99347.3
0.18188 0.0650149 0.0146 99347.6
0.18188 0.0650149 0.0142873 99347.6
0.18188 0.0650149 0 99347.6
0.181894 0.0649374 0 99348.3
0.181894 0.0649374 0.0146 99348.3
0.183418 0.0622158 0 99357.9
0.18295 0.0617449 0.00337716 99353.3
0.183418 0.0622158 0.0146 99357.9
0.18295 0.0617449 0.0112228 99353.3
0.180823 0.068115 0.0073 99338
0.181876 0.0651102 0.000327264 99346
0.181876 0.0651102 0.0142727 99346
0.179961 0.0692688 0.0146 99352.6
0.179961 0.0692688 0.00766664 99352.6
0.179961 0.0692688 0 99352.6
0.180464 0.0677544 0 99361.1
0.180464 0.0677544 0.0146 99361.1
0.178336 0.0729229 0.012541 99345.4
0.17834 0.0735228 0.0146 99348.1
0.178336 0.0729229 0.00205898 99345.4
0.17834 0.0735228 0.00207168 99348.1
0.17834 0.0735228 0 99348.1
0.179027 0.0705634 0.0073 99348
0.179413 0.0709519 0 99356.8
0.179413 0.0709519 0.0146 99356.8
0.177739 0.0749222 0 99346.3
0.177139 0.0771732 0.0125283 99341.2
0.177139 0.0771732 0.00207172 99341.2
0.177739 0.0749222 0.00480271 99346.3
0.177739 0.0749222 0.0146 99346.3
0.176558 0.0777768 0.0146 99349.9
0.176558 0.0777768 0.0105267 99349.9
0.176558 0.0777768 0 99349.9
0.176789 0.0768219 0 99355.2
0.176789 0.0768219 0.0146 99355.2
0.178248 0.0740346 0 99348.5
0.17803 0.0738149 0.00100231 99348.3
0.178248 0.0740346 0.0146 99348.5
0.17803 0.0738149 0.0135977 99348.3
0.175973 0.0797858 0.00716498 99332.9
0.175136 0.0820308 0.0146 99349
0.175136 0.0820308 0.00561814 99349
0.175136 0.0820308 0 99349
0.175749 0.0800298 0 99355.9
0.175749 0.0800298 0.0146 99355.9
0.173686 0.0861055 0.0139847 99344.1
0.173736 0.0862847 0.0146 99344.6
0.173686 0.0861055 0.00061534 99344.1
0.173736 0.0862847 0.000789228 99344.6
0.173736 0.0862847 0 99344.6
0.174399 0.0829268 0.00307525 99347.9
0.174824 0.0833548 0 99351.1
0.174824 0.0833548 0.0146 99351.1
0.174399 0.0829268 0.0115248 99347.9
0.173507 0.086901 0 99343.9
0.172822 0.08985 0.0122362 99338.8
0.172822 0.08985 0.00236381 99338.8
0.173507 0.086901 0.00211498 99343.9
0.173507 0.086901 0.0146 99343.9
0.172252 0.0905387 0.0146 99347.5
0.172252 0.0905387 0.010268 99347.5
0.172252 0.0905387 0 99347.5
0.172484 0.0895096 0 99351.6
0.172484 0.0895096 0.0146 99351.6
0.17371 0.0864883 0 99344.6
0.173621 0.0863987 0.000391262 99344.6
0.17371 0.0864883 0.0146 99344.6
0.173621 0.0863987 0.0142087 99344.6
0.171838 0.0925441 0.00716085 99332.5
0.171072 0.0947927 0.0146 99346.9
0.171072 0.0947927 0.00619746 99346.9
0.171072 0.0947927 0 99346.9
0.171563 0.0928382 0 99351.9
0.171563 0.0928382 0.0146 99351.9
0.169842 0.0984772 0.0126453 99342.5
0.169954 0.0990467 0.0146 99344.2
0.169842 0.0984772 0.00195466 99342.5
0.169954 0.0990467 0.00234203 99344.2
0.169954 0.0990467 0 99344.2
0.170347 0.0958696 0.0073 99344.6
0.170752 0.0962769 0 99348.9
0.170752 0.0962769 0.0146 99348.9
0.169275 0.101361 0 99342
0.168974 0.102998 0.0135598 99340
0.168974 0.102998 0.00104017 99340
0.169275 0.101361 0.00794243 99342
0.169275 0.101361 0.0146 99342
0.168692 0.103301 0.0146 99343.9
0.168692 0.103301 0.0125882 99343.9
0.168692 0.103301 0 99343.9
0.168774 0.102796 0 99345.6
0.168774 0.102796 0.0146 99345.6
0.169873 0.0996473 0 99344.5
0.169632 0.0994047 0.00122891 99344.1
0.169873 0.0996473 0.0146 99344.5
0.169632 0.0994047 0.0133711 99344.1
0.168243 0.106517 0.00356223 99335
0.16877 0.103808 0.00174188 99337.9
0.168243 0.106517 0.0110378 99335
0.16877 0.103808 0.0128581 99337.9
0.167616 0.107555 0.0146 99345
0.167616 0.107555 0.00887394 99345
0.167616 0.107555 0 99345
0.167891 0.106163 0 99348.4
0.167891 0.106163 0.0146 99348.4
0.167072 0.1097 0.00732093 99332.4
0.166671 0.111809 0.0146 99344.3
0.166671 0.111809 0.00561326 99344.3
0.166671 0.111809 0 99344.3
0.167127 0.109649 0 99347.7
0.167127 0.109649 0.0146 99347.7
0.165609 0.115494 0.0126494 99340.9
0.165761 0.116063 0.0146 99342.2
0.165609 0.115494 0.00195058 99340.9
0.165761 0.116063 0.00247649 99342.2
0.165761 0.116063 0 99342.2
0.166028 0.112799 0.00339826 99342.6
0.166431 0.113204 0 99345.5
0.166431 0.113204 0.0146 99345.5
0.166028 0.112799 0.0112017 99342.6
0.165043 0.119099 0 99339.9
0.164884 0.120157 0.0140515 99339.1
0.164884 0.120157 0.000548542 99339.1
0.165043 0.119099 0.0104225 99339.9
0.165043 0.119099 0.0146 99339.9
0.164739 0.120317 0.0146 99340.9
0.164739 0.120317 0.0135508 99340.9
0.164739 0.120317 0 99340.9
0.164774 0.120046 0 99341.5
0.164774 0.120046 0.0146 99341.5
0.165687 0.116709 0 99342.4
0.165436 0.116457 0.00135502 99342
0.165687 0.116709 0.0146 99342.4
0.165436 0.116457 0.013245 99342
0.164321 0.123844 0.00249228 99335.6
0.164816 0.120546 0.000785935 99338.3
0.164321 0.123844 0.0121077 99335.6
0.164816 0.120546 0.0138141 99338.3
0.163826 0.124571 0.0146 99342.1
0.163826 0.124571 0.0104014 99342.1
0.163826 0.124571 0 99342.1
0.163987 0.123509 0 99344.2
0.163987 0.123509 0.0146 99344.2
0.163702 0.126565 0.00714813 99332.5
0.163015 0.128825 0.0146 99342.1
0.163015 0.128825 0.00760224 99342.1
0.163015 0.128825 0 99342.1
0.16331 0.127082 0 99344.4
0.16331 0.127082 0.0146 99344.4
0.162393 0.131033 0.00739364 99335.8
0.162273 0.133078 0.0146 99341.6
0.162273 0.133078 0.00504271 99341.6
0.162273 0.133078 0 99341.6
0.162686 0.130709 0 99343.6
0.162686 0.130709 0.0146 99343.6
0.161371 0.13677 0.0126694 99339
0.161548 0.137332 0.0146 99339.9
0.161371 0.13677 0.00193062 99339
0.161548 0.137332 0.00254195 99339.9
0.161548 0.137332 0 99339.9
0.161717 0.133989 0.00312331 99340.3
0.162101 0.134375 0 99342.2
0.162101 0.134375 0.0146 99342.2
0.161717 0.133989 0.0114767 99340.3
0.160812 0.141295 0 99337.8
0.160781 0.141555 0.0144932 99337.7
0.160781 0.141555 0.0001068 99337.7
0.160812 0.141295 0.0135997 99337.8
0.160812 0.141295 0.0146 99337.8
0.160753 0.141586 0.0146 99338
0.160753 0.141586 0.0143974 99338
0.160753 0.141586 0 99338
0.160758 0.141533 0 99338
0.160758 0.141533 0.0146 99338
0.161483 0.138008 0 99340.1
0.16123 0.137753 0.00144191 99339.7
0.161483 0.138008 0.0146 99340.1
0.16123 0.137753 0.0131581 99339.7
0.160338 0.145364 0.00163347 99335.6
0.160772 0.141627 0.000137888 99337.6
0.160338 0.145364 0.0129665 99335.6
0.160772 0.141627 0.0144621 99337.6
0.159992 0.14584 0.0146 99339.3
0.159992 0.14584 0.0117739 99339.3
0.159992 0.14584 0 99339.3
0.160075 0.1451 0 99340.4
0.160075 0.1451 0.0146 99340.4
0.159825 0.149103 0.00340278 99333.4
0.160146 0.146509 0.00229481 99334.5
0.159825 0.149103 0.0111972 99333.4
0.160146 0.146509 0.0123052 99334.5
0.159313 0.150094 0.0146 99339.4
0.159313 0.150094 0.009431 99339.4
0.159313 0.150094 0 99339.4
0.159484 0.14876 0 99340.9
0.159484 0.14876 0.0146 99340.9
0.159196 0.152151 0.00721932 99331.4
0.158684 0.154348 0.0146 99339.1
0.158684 0.154348 0.00726008 99339.1
0.158684 0.154348 0 99339.1
0.15894 0.152467 0 99340.6
0.15894 0.152467 0.0146 99340.6
0.158141 0.156542 0.00737598 99334.4
0.1581 0.158602 0.0146 99338.7
0.1581 0.158602 0.00524597 99338.7
0.1581 0.158602 0 99338.7
0.158428 0.156206 0 99340
0.158428 0.156206 0.0146 99340
0.157322 0.162111 0.0120404 99336.6
0.157536 0.162856 0.0146 99337.7
0.157322 0.162111 0.00255956 99336.6
0.157536 0.162856 0.00329815 99337.7
0.157536 0.162856 0 99337.7
0.157574 0.159602 0.00343083 99337.3
0.157951 0.159981 0 99339.1
0.157951 0.159981 0.0146 99339.1
0.157574 0.159602 0.0111692 99337.3
0.156831 0.166858 0.0137343 99336.1
0.156946 0.16711 0.0146 99336.3
0.156831 0.166858 0.000865677 99336.1
0.156946 0.16711 0.00126327 99336.3
0.156946 0.16711 0 99336.3
0.157155 0.163435 0.00198612 99337.3
0.157461 0.163743 0 99337.9
0.157461 0.163743 0.0146 99337.9
0.157155 0.163435 0.0126139 99337.3
0.15658 0.169595 0 99335.5
0.156433 0.171217 0.0140948 99334.9
0.156433 0.171217 0.000505238 99334.9
0.15658 0.169595 0.00852787 99335.5
0.15658 0.169595 0.0146 99335.5
0.156315 0.171364 0.0146 99335.8
0.156315 0.171364 0.0136865 99335.8
0.156315 0.171364 0 99335.8
0.156334 0.171117 0 99336.1
0.156334 0.171117 0.0146 99336.1
0.156922 0.167454 0 99336.4
0.156785 0.167317 0.000709031 99336.3
0.156922 0.167454 0.0146 99336.4
0.156785 0.167317 0.013891 99336.3
0.156071 0.175107 0.00175488 99333.6
0.156398 0.171547 0.000625596 99334.7
0.156071 0.175107 0.0128451 99333.6
0.156398 0.171547 0.0139744 99334.7
0.155731 0.175618 0.0146 99336.3
0.155731 0.175618 0.0116725 99336.3
0.155731 0.175618 0 99336.3
0.155801 0.174836 0 99336.9
0.155801 0.174836 0.0146 99336.9
0.155656 0.178944 0.00318564 99332.3
0.155915 0.176287 0.00229415 99332.9
0.155656 0.178944 0.0114144 99332.3
0.155915 0.176287 0.0123059 99332.9
0.155193 0.179872 0.0146 99336.4
0.155193 0.179872 0.00981698 99336.4
0.155193 0.179872 0 99336.4
0.15532 0.178606 0 99337.2
0.15532 0.178606 0.0146 99337.2
0.155209 0.181919 0.00720797 99331.4
0.154682 0.184126 0.0146 99336
0.154682 0.184126 0.00805307 99336
0.154682 0.184126 0 99336
0.154868 0.182405 0 99337
0.154868 0.182405 0.0146 99337
0.154386 0.186262 0.00730962 99330.6
0.154197 0.18838 0.0146 99335.6
0.154197 0.18838 0.00638005 99335.6
0.154197 0.18838 0 99335.6
0.154434 0.186223 0 99336.5
0.154434 0.186223 0.0146 99336.5
0.153647 0.19058 0.00738308 99333.3
0.153743 0.192634 0.0146 99335.1
0.153743 0.192634 0.004812 99335.1
0.153743 0.192634 0 99335.1
0.154025 0.190066 0 99335.9
0.154025 0.190066 0.0146 99335.9
0.153061 0.196172 0.012141 99333.8
0.153291 0.196888 0.0146 99334.4
0.153061 0.196172 0.00245901 99333.8
0.153291 0.196888 0.00325553 99334.4
0.153291 0.196888 0 99334.4
0.153271 0.193562 0.00318439 99334.3
0.153635 0.193928 0 99335.3
0.153635 0.193928 0.0146 99335.3
0.153271 0.193562 0.0114156 99334.3
0.152668 0.20082 0.0134939 99333.4
0.152816 0.201142 0.0146 99333.5
0.152668 0.20082 0.00110606 99333.4
0.152816 0.201142 0.00161499 99333.5
0.152816 0.201142 0 99333.5
0.152928 0.197471 0.00200088 99334.1
0.153229 0.197774 0 99334.5
0.153229 0.197774 0.0146 99334.5
0.152928 0.197471 0.0125991 99334.1
0.152348 0.205015 0 99332.6
0.152321 0.205369 0.0145084 99332.5
0.152321 0.205369 9.15642e-05 99332.5
0.152348 0.205015 0.0132909 99332.6
0.152348 0.205015 0.0146 99332.6
0.152299 0.205396 0.0146 99332.6
0.152299 0.205396 0.014433 99332.6
0.152299 0.205396 0 99332.6
0.152302 0.20535 0 99332.7
0.152302 0.20535 0.0146 99332.7
0.152788 0.201585 0 99333.5
0.152617 0.201413 0.000929824 99333.4
0.152788 0.201585 0.0146 99333.5
0.152617 0.201413 0.0136702 99333.4
0.152026 0.209326 0.00111196 99331.7
0.152317 0.205427 0.000107602 99332.5
0.152026 0.209326 0.013488 99331.7
0.152317 0.205427 0.0144924 99332.5
0.151796 0.20965 0.0146 99332.7
0.151796 0.20965 0.0126948 99332.7
0.151796 0.20965 0 99332.7
0.151831 0.209131 0 99333
0.151831 0.209131 0.0146 99333
0.151712 0.213265 0.00219241 99330.9
0.151958 0.210042 0.00134487 99331.4
0.151712 0.213265 0.0124076 99330.9
0.151958 0.210042 0.0132551 99331.4
0.151336 0.213904 0.0146 99332.6
0.151336 0.213904 0.0111101 99332.6
0.151336 0.213904 0 99332.6
0.151409 0.21296 0 99333.1
0.151409 0.21296 0.0146 99333.1
0.151331 0.217136 0.00350677 99330.3
0.151546 0.21471 0.00276641 99330.6
0.151331 0.217136 0.0110932 99330.3
0.151546 0.21471 0.0118336 99330.6
0.150853 0.218158 0.0146 99332.5
0.150853 0.218158 0.00944273 99332.5
0.150853 0.218158 0 99332.5
0.150983 0.216786 0 99333
0.150983 0.216786 0.0146 99333
0.150821 0.22021 0.00721427 99329.9
0.150252 0.222412 0.0146 99332.1
0.150252 0.222412 0.00737086 99332.1
0.150252 0.222412 0 99332.1
0.150498 0.220552 0 99332.8
0.150498 0.220552 0.0146 99332.8
0.14966 0.224618 0.00739049 99330.5
0.14957 0.226666 0.0146 99331.6
0.14957 0.226666 0.00501643 99331.6
0.14957 0.226666 0 99331.6
0.14995 0.224255 0 99332.4
0.14995 0.224255 0.0146 99332.4
0.14876 0.230273 0.0123797 99330.7
0.148994 0.23092 0.0146 99330.9
0.14876 0.230273 0.00222033 99330.7
0.148994 0.23092 0.00302913 99330.9
0.148994 0.23092 0 99330.9
0.149004 0.227559 0.00306346 99331.4
0.149395 0.227952 0 99331.8
0.149395 0.227952 0.0146 99331.8
0.149004 0.227559 0.0115365 99331.4
0.148425 0.234864 0.0135353 99330
0.148618 0.235174 0.0146 99330
0.148425 0.234864 0.0010647 99330
0.148618 0.235174 0.00173375 99330
0.148618 0.235174 0 99330
0.148602 0.231409 0.00167741 99330.8
0.148922 0.231731 0 99330.9
0.148922 0.231731 0.0146 99330.9
0.148602 0.231409 0.0129226 99330.8
0.148272 0.239271 0.0140612 99329.9
0.148396 0.239428 0.0146 99329.9
0.148272 0.239271 0.0005388 99329.9
0.148396 0.239428 0.000965171 99329.9
0.148396 0.239428 0 99329.9
0.148381 0.23544 0.000914125 99330
0.148593 0.235654 0 99330
0.148593 0.235654 0.0146 99330
0.148381 0.23544 0.0136859 99330
0.148174 0.243624 0.0143997 99330.5
0.148226 0.243682 0.0146 99330.5
0.148174 0.243624 0.000200336 99330.5
0.148226 0.243682 0.000379459 99330.5
0.148226 0.243682 0 99330.5
0.14826 0.239573 0.000496427 99329.9
0.148389 0.239702 0 99329.9
0.148389 0.239702 0.0146 99329.9
0.14826 0.239573 0.0141036 99329.9
0.148116 0.244013 0 99330.6
0.147599 0.247416 0.0128155 99331.4
0.147599 0.247416 0.00178451 99331.4
0.148116 0.244013 0.00113813 99330.6
0.148116 0.244013 0.0146 99330.6
0.146742 0.247936 0.0146 99331.5
0.146742 0.247936 0.00985985 99331.5
0.146742 0.247936 0 99331.5
0.147121 0.246936 0 99331.4
0.147121 0.246936 0.0146 99331.4
0.148226 0.243792 0 99330.5
0.148173 0.243739 0.000196057 99330.5
0.148226 0.243792 0.0146 99330.5
0.148173 0.243739 0.0144039 99330.5
0.143884 0.250969 0 99331.5
0.143411 0.251714 0.0129669 99331.4
0.143411 0.251714 0.00163315 99331.4
0.143884 0.250969 0.0104098 99331.5
0.143884 0.250969 0.0146 99331.5
0.141824 0.25219 0.0146 99332.2
0.141824 0.25219 0.00749265 99332.2
0.141824 0.25219 0 99332.2
0.143007 0.251308 0 99331.5
0.143007 0.251308 0.0146 99331.5
0.145767 0.249829 0 99331.2
0.145321 0.24938 0.0073 99332.8
0.145767 0.249829 0.0146 99331.2
0.0973333 0.25625 0 99333
0.0972254 0.256335 0.0142276 99332.8
0.0972254 0.256335 0.000372354 99332.8
0.0973333 0.25625 0.0139359 99333
0.0973333 0.25625 0.0146 99333
0.0943697 0.256444 0.0146 99333
0.0943697 0.256444 0.00437534 99333
0.0943697 0.256444 0 99333
0.0971465 0.256256 0 99333
0.0971465 0.256256 0.0146 99333
0.101565 0.255985 0 99333
0.101302 0.256179 0.0136917 99332.6
0.101302 0.256179 0.000908294 99332.6
0.101565 0.255985 0.0130267 99333
0.101565 0.255985 0.0146 99333
0.0974497 0.256327 0.0141986 99332.8
0.0974497 0.256327 0.000401373 99332.8
0.101124 0.256 0 99333
0.101124 0.256 0.0146 99333
0.105797 0.255733 0 99332.9
0.105374 0.256019 0.0131419 99332.6
0.105374 0.256019 0.00145809 99332.6
0.105797 0.255733 0.0121614 99332.9
0.105797 0.255733 0.0146 99332.9
0.101852 0.256155 0.0136098 99332.7
0.101852 0.256155 0.000990188 99332.7
0.105115 0.255758 0 99333
0.105115 0.255758 0.0146 99333
0.110029 0.255495 0 99332.9
0.109441 0.255853 0.0125723 99332.6
0.109441 0.255853 0.0020277 99332.6
0.110029 0.255495 0.0113432 99332.9
0.110029 0.255495 0.0146 99332.9
0.106262 0.255976 0.0129953 99332.6
0.106262 0.255976 0.00160474 99332.6
0.10912 0.25553 0 99333
0.10912 0.25553 0.0146 99333
0.114261 0.255267 0 99333.1
0.113504 0.255683 0.0119895 99332.8
0.113504 0.255683 0.00261053 99332.8
0.114261 0.255267 0.0105619 99333.1
0.114261 0.255267 0.0146 99333.1
0.11068 0.25579 0.0123556 99332.7
0.11068 0.25579 0.0022444 99332.7
0.113141 0.255318 0 99333.1
0.113141 0.255318 0.0146 99333.1
0.118493 0.255053 0 99333.3
0.117533 0.255479 0.0112882 99333.5
0.117533 0.255479 0.00331184 99333.5
0.118493 0.255053 0.00982681 99333.3
0.118493 0.255053 0.0146 99333.3
0.115133 0.255567 0.01159 99333.2
0.115133 0.255567 0.00300998 99333.2
0.117174 0.255119 0 99333.3
0.117174 0.255119 0.0146 99333.3
0.122725 0.254871 0 99333.5
0.120576 0.2553 0.00726276 99334
0.122725 0.254871 0.00920107 99333.5
0.122725 0.254871 0.0146 99333.5
0.121224 0.254935 0 99333.5
0.121224 0.254935 0.0146 99333.5
0.126957 0.254707 0 99333.6
0.124816 0.255091 0.0072721 99334.7
0.126957 0.254707 0.00863877 99333.6
0.126957 0.254707 0.0146 99333.6
0.125293 0.254771 0 99333.6
0.125293 0.254771 0.0146 99333.6
0.131188 0.25453 0 99333.6
0.129053 0.254853 0.00727776 99335.4
0.131188 0.25453 0.00803192 99333.6
0.131188 0.25453 0.0146 99333.6
0.129361 0.254606 0 99333.7
0.129361 0.254606 0.0146 99333.7
0.13542 0.254149 0 99333.5
0.133287 0.254535 0.00727989 99336.2
0.13542 0.254149 0.00672337 99333.5
0.13542 0.254149 0.0146 99333.5
0.133327 0.254339 0 99333.6
0.133327 0.254339 0.0146 99333.6
0.139652 0.253363 0 99332.6
0.139652 0.253363 0.00402526 99332.6
0.13767 0.253514 0.00745441 99335.2
0.139652 0.253363 0.0146 99332.6
0.137096 0.253875 0 99333.2
0.137096 0.253875 0.0146 99333.2
0.140621 0.253164 0 99332.2
0.140308 0.252849 0.002263 99332.9
0.140621 0.253164 0.0146 99332.2
0.140308 0.252849 0.012337 99332.9
0.00423188 0.259616 0 99336.5
0.0035289 0.259991 0.0121747 99335.1
0.0035289 0.259991 0.00242528 99335.1
0.00423188 0.259616 0.010888 99336.5
0.00423188 0.259616 0.0146 99336.5
0.000667322 0.260027 0.0122977 99335
0.000667322 0.260027 0.00230226 99335
0 0.259691 0.0146 99336.3
0 0.259691 0.0111432 99336.3
0 0.259691 0 99336.3
0.00316987 0.25963 0 99336.4
0.00316987 0.25963 0.0146 99336.4
0.00846377 0.259524 0 99336.6
0.0076657 0.259896 0.0118467 99335.2
0.0076657 0.259896 0.00275334 99335.2
0.00846377 0.259524 0.0105701 99336.6
0.00846377 0.259524 0.0146 99336.6
0.00498653 0.259939 0.0119965 99335.2
0.00498653 0.259939 0.00260352 99335.2
0.00731541 0.259543 0 99336.6
0.00731541 0.259543 0.0146 99336.6
0.0126957 0.259479 0 99336.7
0.0118599 0.259858 0.0117166 99335.3
0.0118599 0.259858 0.0028834 99335.3
0.0126957 0.259479 0.0104158 99336.7
0.0126957 0.259479 0.0146 99336.7
0.00928037 0.259877 0.0117827 99335.2
0.00928037 0.259877 0.00281727 99335.2
0.0114951 0.259491 0 99336.7
0.0114951 0.259491 0.0146 99336.7
0.0169275 0.259425 0 99336.9
0.0160406 0.259806 0.01154 99335.5
0.0160406 0.259806 0.00305998 99335.5
0.0169275 0.259425 0.0102309 99336.9
0.0169275 0.259425 0.0146 99336.9
0.0135604 0.259829 0.0116166 99335.4
0.0135604 0.259829 0.00298342 99335.4
0.015677 0.259441 0 99336.8
0.015677 0.259441 0.0146 99336.8
0.0211594 0.259363 0 99337
0.0202139 0.259747 0.0113379 99335.6
0.0202139 0.259747 0.00326213 99335.6
0.0211594 0.259363 0.0100196 99337
0.0211594 0.259363 0.0146 99337
0.0178484 0.259772 0.0114229 99335.6
0.0178484 0.259772 0.00317712 99335.6
0.0198507 0.259382 0 99337
0.0198507 0.259382 0.0146 99337
0.0253913 0.25929 0 99337.2
0.024373 0.259674 0.0110868 99335.9
0.024373 0.259674 0.00351315 99335.9
0.0253913 0.25929 0.00976788 99337.2
0.0253913 0.25929 0.0146 99337.2
0.0221495 0.259703 0.0111842 99335.8
0.0221495 0.259703 0.00341579 99335.8
0.0240144 0.259314 0 99337.1
0.0240144 0.259314 0.0146 99337.1
0.0296232 0.259204 0 99337.3
0.0274916 0.2596 0.00728202 99336.1
0.0296232 0.259204 0.00947327 99337.3
0.0296232 0.259204 0.0146 99337.3
0.0281666 0.259234 0 99337.3
0.0281666 0.259234 0.0146 99337.3
0.0338551 0.259106 0 99337.5
0.0317226 0.25949 0.00728095 99336.3
0.0338551 0.259106 0.00913556 99337.5
0.0338551 0.259106 0.0146 99337.5
0.032307 0.259142 0 99337.5
0.032307 0.259142 0.0146 99337.5
0.038087 0.258995 0 99337.6
0.0359544 0.259357 0.00728093 99336.6
0.038087 0.258995 0.00875526 99337.6
0.038087 0.258995 0.0146 99337.6
0.0364358 0.259038 0 99337.6
0.0364358 0.259038 0.0146 99337.6
0.0423188 0.258871 0 99337.7
0.0401876 0.259194 0.00728237 99337
0.0423188 0.258871 0.00833186 99337.7
0.0423188 0.258871 0.0146 99337.7
0.0405532 0.258923 0 99337.7
0.0405532 0.258923 0.0146 99337.7
0.0465507 0.258736 0 99337.7
0.0444227 0.258995 0.00728606 99337.4
0.0465507 0.258736 0.00786541 99337.7
0.0465507 0.258736 0.0146 99337.7
0.0446591 0.258796 0 99337.8
0.0446591 0.258796 0.0146 99337.8
0.0507826 0.258588 0 99337.7
0.0486607 0.25875 0.00729317 99337.8
0.0507826 0.258588 0.00735769 99337.7
0.0507826 0.258588 0.0146 99337.7
0.0487539 0.258659 0 99337.9
0.0487539 0.258659 0.0146 99337.9
0.0550145 0.258428 0 99337.6
0.0550145 0.258428 0.00681025 99337.6
0.0529028 0.258454 0.00730489 99338.2