# U  POINT_DATA 977
# x y z  U_x U_y U_z
0.247476 0.0010027 0.00730663 1.56948 -0.0149974 0
0.24726 0.00199996 0.0146 1.63933 0.0094726 0
0.24726 0.00199996 0.00624612 1.63933 0.0094726 0
0.24726 0.00199996 0 1.63933 0.0094726 0
0.247523 0 0 0 0 0
0.247523 0 0.00715397 0 0 0
0.247523 0 0.0146 0 0 0
0.247401 0.000922606 0 0.768353 0.0198908 0
0.247401 0.000922606 0.0146 0.768353 0.0198908 0
0.246093 0.00369586 0.0123804 1.65945 -0.0228521 0
0.245997 0.00399991 0.0146 1.65719 -0.00630654 0
0.246093 0.00369586 0.00221963 1.65945 -0.0228521 0
0.245997 0.00399991 0.00188944 1.65719 -0.00630654 0
0.245997 0.00399991 0 1.65719 -0.00630654 0
0.246749 0.00261414 0.0073 1.63954 -0.0203757 0
0.246936 0.00270264 0 1.61984 0.0262315 0
0.246936 0.00270264 0.0146 1.61984 0.0262315 0
0.245449 0.00447869 0 1.67193 -0.0152144 0
0.244662 0.00562757 0.0118822 1.68457 -0.003161 0
0.244662 0.00562757 0.00271782 1.68457 -0.003161 0
0.245449 0.00447869 0.00349514 1.67193 -0.0152144 0
0.245449 0.00447869 0.0146 1.67193 -0.0152144 0
0.243826 0.00599987 0.0146 1.68393 -0.00225271 0
0.243826 0.00599987 0.00900052 1.68393 -0.00225271 0
0.243826 0.00599987 0 1.68393 -0.00225271 0
0.244216 0.00541714 0 1.6852 0.00152104 0
0.244216 0.00541714 0.0146 1.6852 0.00152104 0
0.245905 0.00421533 0 1.65435 -0.00207926 0
0.245696 0.00411639 0.000850305 1.66704 -0.0234474 0
0.245905 0.00421533 0.0146 1.65435 -0.00207926 0
0.245696 0.00411639 0.0137497 1.66704 -0.0234474 0
0.241217 0.00799602 0 1.68397 -0.0325594 0
0.241215 0.00799868 0.0145917 1.68399 -0.0325686 0
0.241215 0.00799868 8.33627e-06 1.68399 -0.0325686 0
0.241217 0.00799602 0.0145722 1.68397 -0.0325594 0
0.241217 0.00799602 0.0146 1.68397 -0.0325594 0
0.241211 0.00799983 0.0146 1.68399 -0.0325612 0
0.241211 0.00799983 0.0145793 1.68399 -0.0325612 0
0.241211 0.00799983 0 1.68399 -0.0325612 0
0.241213 0.00799754 0 1.68398 -0.0325615 0
0.241213 0.00799754 0.0146 1.68398 -0.0325615 0
0.243025 0.00685395 0 1.65698 0.0130551 0
0.242746 0.00672218 0.0073 1.66351 -0.0207605 0
0.243025 0.00685395 0.0146 1.65698 0.0130551 0
0.239631 0.00925004 0.0073 1.67844 -0.01769 0
0.241206 0.00800516 3.89239e-05 1.68396 -0.032518 0
0.241206 0.00800516 0.0145611 1.68396 -0.032518 0
0.238313 0.00999978 0.0146 1.68003 -0.0195821 0
0.238313 0.00999978 0.00457992 1.68003 -0.0195821 0
0.238313 0.00999978 0 1.68003 -0.0195821 0
0.239343 0.00911373 0 1.67996 -0.0129953 0
0.239343 0.00911373 0.0146 1.67996 -0.0129953 0
0.236986 0.0108346 0 1.67998 -0.0235371 0
0.236232 0.0116436 0.0120002 1.6823 -0.022542 0
0.236232 0.0116436 0.00259984 1.6823 -0.022542 0
0.236986 0.0108346 0.00609456 1.67998 -0.0235371 0
0.236986 0.0108346 0.0146 1.67998 -0.0235371 0
0.235105 0.0119997 0.0146 1.68073 -0.0233009 0
0.235105 0.0119997 0.00811104 1.68073 -0.0233009 0
0.235105 0.0119997 0 1.68073 -0.0233009 0
0.2357 0.0113922 0 1.6812 -0.0211368 0
0.2357 0.0113922 0.0146 1.6812 -0.0211368 0
0.237984 0.0104718 0 1.66234 -0.00460627 0
0.237561 0.0102717 0.00198526 1.67695 -0.0274524 0
0.237984 0.0104718 0.0146 1.66234 -0.00460627 0
0.237561 0.0102717 0.0126147 1.67695 -0.0274524 0
0.232754 0.0133609 0 1.7026 -0.0244333 0
0.232304 0.0137873 0.0130494 1.70779 -0.0250906 0
0.232304 0.0137873 0.00155062 1.70779 -0.0250906 0
0.232754 0.0133609 0.00993694 1.7026 -0.0244333 0
0.232754 0.0133609 0.0146 1.7026 -0.0244333 0
0.231625 0.0139997 0.0146 1.70429 -0.0265863 0
0.231625 0.0139997 0.0107057 1.70429 -0.0265863 0
0.231625 0.0139997 0 1.70429 -0.0265863 0
0.231918 0.0136048 0 1.70651 -0.024298 0
0.231918 0.0136048 0.0146 1.70651 -0.024298 0
0.234287 0.0127245 0 1.67785 -0.00758381 0
0.233738 0.0124651 0.00339692 1.67438 -0.0261173 0
0.234287 0.0127245 0.0146 1.67785 -0.00758381 0
0.233738 0.0124651 0.0112031 1.67438 -0.0261173 0
0.228522 0.0158798 0 1.70006 -0.0529554 0
0.228437 0.0159595 0.0143065 1.70057 -0.0535472 0
0.228437 0.0159595 0.000293484 1.70057 -0.0535472 0
0.228522 0.0158798 0.0137253 1.70006 -0.0529554 0
0.228522 0.0158798 0.0146 1.70006 -0.0529554 0
0.228304 0.0159997 0.0146 1.69988 -0.0538466 0
0.228304 0.0159997 0.0138471 1.69988 -0.0538466 0
0.228304 0.0159997 0 1.69988 -0.0538466 0
0.228352 0.0159192 0 1.7002 -0.0535188 0
0.228352 0.0159192 0.0146 1.7002 -0.0535188 0
0.230414 0.0148942 0 1.6882 -0.023674 0
0.230042 0.0147182 0.0073 1.67466 -0.036414 0
0.230414 0.0148942 0.0146 1.6882 -0.023674 0
0.226624 0.0171026 0.0073 1.67285 -0.0474678 0
0.227805 0.0163386 0.00247415 1.69103 -0.0518103 0
0.227805 0.0163386 0.0121259 1.69103 -0.0518103 0
0.224984 0.0179996 0.0146 1.68247 -0.0617416 0
0.224984 0.0179996 0.00239596 1.68247 -0.0617416 0
0.224984 0.0179996 0 1.68247 -0.0617416 0
0.226489 0.017039 0 1.68173 -0.0488525 0
0.226489 0.017039 0.0146 1.68173 -0.0488525 0
0.22429 0.0183876 0 1.68183 -0.0630213 0
0.223057 0.0194168 0.0073 1.672 -0.0665979 0
0.22429 0.0183876 0.00283274 1.68183 -0.0630213 0
0.22429 0.0183876 0.0146 1.68183 -0.0630213 0
0.221561 0.0199996 0.0146 1.6669 -0.0766631 0
0.221561 0.0199996 0.0051845 1.6669 -0.0766631 0
0.221561 0.0199996 0 1.6669 -0.0766631 0
0.222577 0.01919 0 1.67522 -0.0641696 0
0.222577 0.01919 0.0146 1.67522 -0.0641696 0
0.224816 0.0182483 0 1.67249 -0.0547835 0
0.224564 0.0181293 0.000946687 1.68596 -0.0658812 0
0.224816 0.0182483 0.0146 1.67249 -0.0547835 0
0.224564 0.0181293 0.0136533 1.68596 -0.0658812 0
0.220058 0.0208594 0 1.66857 -0.0865201 0
0.219233 0.0216097 0.0117546 1.6705 -0.0942908 0
0.219233 0.0216097 0.00284545 1.6705 -0.0942908 0
0.220058 0.0208594 0.00627685 1.66857 -0.0865201 0
0.220058 0.0208594 0.0146 1.66857 -0.0865201 0
0.218103 0.0219995 0.0146 1.66133 -0.104188 0
0.218103 0.0219995 0.00785561 1.66133 -0.104188 0
0.218103 0.0219995 0 1.66133 -0.104188 0
0.218719 0.0213667 0 1.67078 -0.0927046 0
0.218719 0.0213667 0.0146 1.67078 -0.0927046 0
0.221124 0.0205032 0 1.66025 -0.0683873 0
0.220662 0.020285 0.00208385 1.65784 -0.0847996 0
0.221124 0.0205032 0.0146 1.66025 -0.0683873 0
0.220662 0.020285 0.0125161 1.65784 -0.0847996 0
0.215826 0.0234002 0 1.66173 -0.134755 0
0.215413 0.0238043 0.013175 1.66424 -0.140402 0
0.215413 0.0238043 0.00142497 1.66424 -0.140402 0
0.215826 0.0234002 0.0102253 1.66173 -0.134755 0
0.215826 0.0234002 0.0146 1.66173 -0.134755 0
0.214821 0.0239995 0.0146 1.6577 -0.146797 0
0.214821 0.0239995 0.0111332 1.6577 -0.146797 0
0.214821 0.0239995 0 1.6577 -0.146797 0
0.215068 0.0236411 0 1.66299 -0.140615 0
0.215068 0.0236411 0.0146 1.66299 -0.140615 0
0.217337 0.0227133 0 1.66161 -0.102783 0
0.216818 0.0224684 0.00342279 1.63337 -0.123616 0
0.217337 0.0227133 0.0146 1.66161 -0.102783 0
0.216818 0.0224684 0.0111772 1.63337 -0.123616 0
0.212298 0.025667 0.0121734 1.60562 -0.195029 0
0.211983 0.0259994 0.0146 1.61186 -0.200268 0
0.212298 0.025667 0.00242658 1.60562 -0.195029 0
0.211983 0.0259994 0.00134299 1.61186 -0.200268 0
0.211983 0.0259994 0 1.61186 -0.200268 0
0.213313 0.0248116 0.0073 1.60531 -0.172297 0
0.213575 0.0249355 0 1.63649 -0.1573 0
0.213575 0.0249355 0.0146 1.63649 -0.1573 0
0.211594 0.0262543 0 1.6096 -0.207078 0
0.210381 0.0274259 0.0073 1.60155 -0.219683 0
0.211594 0.0262543 0.00186041 1.6096 -0.207078 0
0.211594 0.0262543 0.0146 1.6096 -0.207078 0
0.209199 0.0279994 0.0146 1.59188 -0.234239 0
0.209199 0.0279994 0.00633677 1.59188 -0.234239 0
0.209199 0.0279994 0 1.59188 -0.234239 0
0.209959 0.0272265 0 1.61089 -0.216571 0
0.209959 0.0272265 0.0146 1.61089 -0.216571 0
0.211906 0.0261468 0 1.60689 -0.198558 0
0.211758 0.0260771 0.000566705 1.60904 -0.208155 0
0.211906 0.0261468 0.0146 1.60689 -0.198558 0
0.211758 0.0260771 0.0140333 1.60904 -0.208155 0
0.207362 0.0293794 0 1.57702 -0.267759 0
0.206986 0.0298217 0.0133031 1.57763 -0.275601 0
0.206986 0.0298217 0.00129695 1.57763 -0.275601 0
0.207362 0.0293794 0.0100743 1.57702 -0.267759 0
0.207362 0.0293794 0.0146 1.57702 -0.267759 0
0.206497 0.0299994 0.0146 1.57129 -0.281473 0
0.206497 0.0299994 0.0116163 1.57129 -0.281473 0
0.206497 0.0299994 0 1.57129 -0.281473 0
0.206683 0.0296781 0 1.57665 -0.275272 0
0.206683 0.0296781 0.0146 1.57665 -0.275272 0
0.208686 0.0286247 0 1.58429 -0.229845 0
0.208213 0.0284016 0.00293632 1.55944 -0.252114 0
0.208686 0.0286247 0.0146 1.58429 -0.229845 0
0.208213 0.0284016 0.0116637 1.55944 -0.252114 0
0.205364 0.0309685 0.00722493 1.5196 -0.310114 0
0.204262 0.0319993 0.0146 1.52287 -0.324917 0
0.204262 0.0319993 0.00390292 1.52287 -0.324917 0
0.204262 0.0319993 0 1.52287 -0.324917 0
0.205298 0.0310235 0 1.55247 -0.289316 0
0.205298 0.0310235 0.0146 1.55247 -0.289316 0
0.20313 0.0329784 0 1.50842 -0.356136 0
0.202577 0.0337378 0.0126916 1.50749 -0.367951 0
0.202577 0.0337378 0.00190837 1.50749 -0.367951 0
0.20313 0.0329784 0.0071479 1.50842 -0.356136 0
0.20313 0.0329784 0.0146 1.50842 -0.356136 0
0.201958 0.0339993 0.0146 1.4996 -0.374913 0
0.201958 0.0339993 0.010554 1.4996 -0.374913 0
0.201958 0.0339993 0 1.4996 -0.374913 0
0.202208 0.0335635 0 1.50756 -0.36661 0
0.202208 0.0335635 0.0146 1.50756 -0.36661 0
0.204019 0.0324193 0 1.50812 -0.323455 0
0.203656 0.0322478 0.00181421 1.50094 -0.3491 0
0.204019 0.0324193 0.0146 1.50812 -0.323455 0
0.203656 0.0322478 0.0127858 1.50094 -0.3491 0
0.200908 0.0350196 0.00734955 1.44987 -0.403025 0
0.200116 0.0359992 0.0146 1.45706 -0.407723 0
0.200116 0.0359992 0.00420027 1.45706 -0.407723 0
0.200116 0.0359992 0 1.45706 -0.407723 0
0.201011 0.0349975 0 1.48566 -0.374734 0
0.201011 0.0349975 0.0146 1.48566 -0.374734 0
0.198899 0.0372446 0 1.42734 -0.445996 0
0.198543 0.0378309 0.0133716 1.42226 -0.455143 0
0.198543 0.0378309 0.00122836 1.42226 -0.455143 0
0.198899 0.0372446 0.00909125 1.42734 -0.445996 0
0.198899 0.0372446 0.0146 1.42734 -0.445996 0
0.198131 0.0379992 0.0146 1.41696 -0.458529 0
0.198131 0.0379992 0.0119518 1.41696 -0.458529 0
0.198131 0.0379992 0 1.41696 -0.458529 0
0.19827 0.0377023 0 1.42142 -0.453799 0
0.19827 0.0377023 0.0146 1.42142 -0.453799 0
0.199873 0.03646 0 1.43543 -0.40598 0
0.199494 0.0362805 0.00205322 1.43251 -0.433714 0
0.199873 0.03646 0.0146 1.43543 -0.40598 0
0.199494 0.0362805 0.0125468 1.43251 -0.433714 0
0.1973 0.0392437 0.0073 1.39299 -0.468115 0
0.197895 0.0384736 0.00346312 1.40428 -0.466609 0
0.197895 0.0384736 0.0111369 1.40428 -0.466609 0
0.196467 0.0399991 0.0146 1.38859 -0.472561 0
0.196467 0.0399991 0.00621256 1.38859 -0.472561 0
0.196467 0.0399991 0 1.38859 -0.472561 0
0.197073 0.0391365 0 1.40816 -0.450895 0
0.197073 0.0391365 0.0146 1.40816 -0.450895 0
0.19489 0.0418935 0.013829 1.34086 -0.525369 0
0.194943 0.0419991 0.0146 1.34163 -0.519355 0
0.19489 0.0418935 0.000771043 1.34086 -0.525369 0
0.194943 0.0419991 0.000953339 1.34163 -0.519355 0
0.194943 0.0419991 0 1.34163 -0.519355 0
0.195642 0.0404599 0.0033639 1.35833 -0.503742 0
0.196088 0.0406707 0 1.36636 -0.467797 0
0.196088 0.0406707 0.0146 1.36636 -0.467797 0
0.195642 0.0404599 0.0112361 1.35833 -0.503742 0
0.194667 0.0423144 0 1.33884 -0.527935 0
0.193924 0.0436481 0.0120381 1.32907 -0.536183 0
0.193924 0.0436481 0.00256194 1.32907 -0.536183 0
0.194667 0.0423144 0.00230214 1.33884 -0.527935 0
0.194667 0.0423144 0.0146 1.33884 -0.527935 0
0.193294 0.043999 0.0146 1.3211 -0.540991 0
0.193294 0.043999 0.00986474 1.3211 -0.540991 0
0.193294 0.043999 0 1.3211 -0.540991 0
0.193572 0.0434818 0 1.33094 -0.531992 0
0.193572 0.0434818 0.0146 1.33094 -0.531992 0
0.194909 0.0421136 0 1.33781 -0.518375 0
0.194803 0.0420634 0.000469816 1.33947 -0.527801 0
0.194909 0.0421136 0.0146 1.33781 -0.518375 0
0.194803 0.0420634 0.0141302 1.33947 -0.527801 0
0.192658 0.044983 0.00726097 1.28494 -0.570927 0
0.192038 0.045999 0.0146 1.28561 -0.558785 0
0.192038 0.045999 0.00553098 1.28561 -0.558785 0
0.192038 0.045999 0 1.28561 -0.558785 0
0.192599 0.0450218 0 1.30716 -0.533369 0
0.192599 0.0450218 0.0146 1.30716 -0.533369 0
0.19059 0.0479254 0.0140633 1.23697 -0.614472 0
0.190628 0.047999 0.0146 1.23721 -0.608947 0
0.19059 0.0479254 0.000536669 1.23697 -0.614472 0
0.190628 0.047999 0.000666392 1.23721 -0.608947 0
0.190628 0.047999 0 1.23721 -0.608947 0
0.191339 0.0464262 0.00311832 1.25804 -0.596224 0
0.191747 0.0466192 0 1.26395 -0.554961 0
0.191747 0.0466192 0.0146 1.26395 -0.554961 0
0.191339 0.0464262 0.0114817 1.25804 -0.596224 0
0.190435 0.0483474 0 1.23339 -0.614365 0
0.189455 0.0512684 0.011221 1.20869 -0.615179 0
0.189455 0.0512684 0.00337896 1.20869 -0.615179 0
0.190435 0.0483474 0.00119602 1.23339 -0.614365 0
0.190435 0.0483474 0.0146 1.23339 -0.614365 0
0.188458 0.0522529 0.0146 1.19266 -0.624785 0
0.188458 0.0522529 0.00777844 1.19266 -0.624785 0
0.188458 0.0522529 0 1.19266 -0.624785 0
0.189003 0.0508133 0 1.20998 -0.607081 0
0.189003 0.0508133 0.0146 1.20998 -0.607081 0
0.190604 0.0481691 0 1.23288 -0.606192 0
0.190529 0.0480934 0.000324096 1.23567 -0.615609 0
0.190604 0.0481691 0.0146 1.23288 -0.606192 0
0.190529 0.0480934 0.0142759 1.23567 -0.615609 0
0.186203 0.0563491 0 1.12989 -0.691205 0
0.186162 0.0564655 0.0144578 1.12854 -0.692493 0
0.186162 0.0564655 0.000142201 1.12854 -0.692493 0
0.186203 0.0563491 0.0140584 1.12989 -0.691205 0
0.186203 0.0563491 0.0146 1.12989 -0.691205 0
0.186104 0.0565069 0.0146 1.12776 -0.692709 0
0.186104 0.0565069 0.0142603 1.12776 -0.692709 0
0.186104 0.0565069 0 1.12776 -0.692709 0
0.186121 0.0564241 0 1.12867 -0.691866 0
0.186121 0.0564241 0.0146 1.12867 -0.691866 0
0.187796 0.0538548 0 1.15601 -0.612629 0
0.187317 0.0533729 0.0073 1.16295 -0.65882 0
0.187796 0.0538548 0.0146 1.15601 -0.612629 0
0.184899 0.0594497 0.0073 1.09221 -0.695501 0
0.186084 0.0566268 0.000411424 1.1262 -0.69378 0
0.186084 0.0566268 0.0141886 1.1262 -0.69378 0
0.183902 0.0607609 0.0146 1.07558 -0.700963 0
0.183902 0.0607609 0.00666107 1.07558 -0.700963 0
0.183902 0.0607609 0 1.07558 -0.700963 0
0.18455 0.0590991 0 1.09841 -0.678532 0
0.18455 0.0590991 0.0146 1.09841 -0.678532 0
0.181971 0.0648465 0 1.01841 -0.75702 0
0.181932 0.0649755 0.014465 1.01696 -0.758083 0
0.181932 0.0649755 0.000134977 1.01696 -0.758083 0
0.181971 0.0648465 0.0140222 1.01841 -0.75702 0
0.181971 0.0648465 0.0146 1.01841 -0.75702 0
0.18188 0.0650149 0.0146 1.01633 -0.758179 0
0.18188 0.0650149 0.0142873 1.01633 -0.758179 0
0.18188 0.0650149 0 1.01633 -0.758179 0
0.181894 0.0649374 0 1.01714 -0.757547 0
0.181894 0.0649374 0.0146 1.01714 -0.757547 0
0.183418 0.0622158 0 1.04444 -0.682071 0
0.18295 0.0617449 0.00337716 1.05248 -0.732426 0
0.183418 0.0622158 0.0146 1.04444 -0.682071 0
0.18295 0.0617449 0.0112228 1.05248 -0.732426 0
0.180823 0.068115 0.0073 0.983149 -0.757604 0
0.181876 0.0651102 0.000327264 1.01526 -0.758982 0
0.181876 0.0651102 0.0142727 1.01526 -0.758982 0
0.179961 0.0692688 0.0146 0.969429 -0.759611 0
0.179961 0.0692688 0.00766664 0.969429 -0.759611 0
0.179961 0.0692688 0 0.969429 -0.759611 0
0.180464 0.0677544 0 0.987874 -0.74369 0
0.180464 0.0677544 0.0146 0.987874 -0.74369 0
0.178336 0.0729229 0.012541 0.921427 -0.804794 0
0.17834 0.0735228 0.0146 0.917662 -0.787474 0
0.178336 0.0729229 0.00205898 0.921427 -0.804794 0
0.17834 0.0735228 0.00207168 0.917662 -0.787474 0
0.17834 0.0735228 0 0.917662 -0.787474 0
0.179027 0.0705634 0.0073 0.945841 -0.790902 0
0.179413 0.0709519 0 0.948631 -0.735048 0
0.179413 0.0709519 0.0146 0.948631 -0.735048 0
0.177739 0.0749222 0 0.901089 -0.811997 0
0.177139 0.0771732 0.0125283 0.877825 -0.820477 0
0.177139 0.0771732 0.00207172 0.877825 -0.820477 0
0.177739 0.0749222 0.00480271 0.901089 -0.811997 0
0.177739 0.0749222 0.0146 0.901089 -0.811997 0
0.176558 0.0777768 0.0146 0.870546 -0.821107 0
0.176558 0.0777768 0.0105267 0.870546 -0.821107 0
0.176558 0.0777768 0 0.870546 -0.821107 0
0.176789 0.0768219 0 0.880283 -0.815104 0
0.176789 0.0768219 0.0146 0.880283 -0.815104 0
0.178248 0.0740346 0 0.904731 -0.780647 0
0.17803 0.0738149 0.00100231 0.912573 -0.809374 0
0.178248 0.0740346 0.0146 0.904731 -0.780647 0
0.17803 0.0738149 0.0135977 0.912573 -0.809374 0
0.175973 0.0797858 0.00716498 0.848124 -0.833999 0
0.175136 0.0820308 0.0146 0.828372 -0.816491 0
0.175136 0.0820308 0.00561814 0.828372 -0.816491 0
0.175136 0.0820308 0 0.828372 -0.816491 0
0.175749 0.0800298 0 0.849356 -0.795034 0
0.175749 0.0800298 0.0146 0.849356 -0.795034 0
0.173686 0.0861055 0.0139847 0.786128 -0.862561 0
0.173736 0.0862847 0.0146 0.784852 -0.853121 0
0.173686 0.0861055 0.00061534 0.786128 -0.862561 0
0.173736 0.0862847 0.000789228 0.784852 -0.853121 0
0.173736 0.0862847 0 0.784852 -0.853121 0
0.174399 0.0829268 0.00307525 0.815224 -0.850136 0
0.174824 0.0833548 0 0.813408 -0.793419 0
0.174824 0.0833548 0.0146 0.813408 -0.793419 0
0.174399 0.0829268 0.0115248 0.815224 -0.850136 0
0.173507 0.086901 0 0.77877 -0.863855 0
0.172822 0.08985 0.0122362 0.75103 -0.869677 0
0.172822 0.08985 0.00236381 0.75103 -0.869677 0
0.173507 0.086901 0.00211498 0.77877 -0.863855 0
0.173507 0.086901 0.0146 0.77877 -0.863855 0
0.172252 0.0905387 0.0146 0.744409 -0.869123 0
0.172252 0.0905387 0.010268 0.744409 -0.869123 0
0.172252 0.0905387 0 0.744409 -0.869123 0
0.172484 0.0895096 0 0.753602 -0.864267 0
0.172484 0.0895096 0.0146 0.753602 -0.864267 0
0.17371 0.0864883 0 0.78001 -0.850354 0
0.173621 0.0863987 0.000391262 0.783556 -0.863369 0
0.17371 0.0864883 0.0146 0.78001 -0.850354 0
0.173621 0.0863987 0.0142087 0.783556 -0.863369 0
0.171838 0.0925441 0.00716085 0.726349 -0.878629 0
0.171072 0.0947927 0.0146 0.707959 -0.857235 0
0.171072 0.0947927 0.00619746 0.707959 -0.857235 0
0.171072 0.0947927 0 0.707959 -0.857235 0
0.171563 0.0928382 0 0.725126 -0.841149 0
0.171563 0.0928382 0.0146 0.725126 -0.841149 0
0.169842 0.0984772 0.0126453 0.675709 -0.900104 0
0.169954 0.0990467 0.0146 0.672549 -0.873455 0
0.169842 0.0984772 0.00195466 0.675709 -0.900104 0
0.169954 0.0990467 0.00234203 0.672549 -0.873455 0
0.169954 0.0990467 0 0.672549 -0.873455 0
0.170347 0.0958696 0.0073 0.696723 -0.892779 0
0.170752 0.0962769 0 0.69655 -0.83248 0
0.170752 0.0962769 0.0146 0.69655 -0.83248 0
0.169275 0.101361 0 0.652982 -0.905719 0
0.168974 0.102998 0.0135598 0.640028 -0.909399 0
0.168974 0.102998 0.00104017 0.640028 -0.909399 0
0.169275 0.101361 0.00794243 0.652982 -0.905719 0
0.169275 0.101361 0.0146 0.652982 -0.905719 0
0.168692 0.103301 0.0146 0.637663 -0.908615 0
0.168692 0.103301 0.0125882 0.637663 -0.908615 0
0.168692 0.103301 0 0.637663 -0.908615 0
0.168774 0.102796 0 0.641559 -0.906951 0
0.168774 0.102796 0.0146 0.641559 -0.906951 0
0.169873 0.0996473 0 0.663804 -0.86545 0
0.169632 0.0994047 0.00122891 0.668429 -0.901701 0
0.169873 0.0996473 0.0146 0.663804 -0.86545 0
0.169632 0.0994047 0.0133711 0.668429 -0.901701 0
0.168243 0.106517 0.00356223 0.611435 -0.903418 0
0.16877 0.103808 0.00174188 0.63367 -0.9118 0
0.168243 0.106517 0.0110378 0.611435 -0.903418 0
0.16877 0.103808 0.0128581 0.63367 -0.9118 0
0.167616 0.107555 0.0146 0.603603 -0.899183 0
0.167616 0.107555 0.00887394 0.603603 -0.899183 0
0.167616 0.107555 0 0.603603 -0.899183 0
0.167891 0.106163 0 0.613925 -0.893225 0
0.167891 0.106163 0.0146 0.613925 -0.893225 0
0.167072 0.1097 0.00732093 0.588513 -0.926602 0
0.166671 0.111809 0.0146 0.573663 -0.88495 0
0.166671 0.111809 0.00561326 0.573663 -0.88495 0
0.166671 0.111809 0 0.573663 -0.88495 0
0.167127 0.109649 0 0.589032 -0.867875 0
0.167127 0.109649 0.0146 0.589032 -0.867875 0
0.165609 0.115494 0.0126494 0.548444 -0.933824 0
0.165761 0.116063 0.0146 0.545511 -0.901633 0
0.165609 0.115494 0.00195058 0.548444 -0.933824 0
0.165761 0.116063 0.00247649 0.545511 -0.901633 0
0.165761 0.116063 0 0.545511 -0.901633 0
0.166028 0.112799 0.00339826 0.566675 -0.929074 0
0.166431 0.113204 0 0.565697 -0.865619 0
0.166431 0.113204 0.0146 0.565697 -0.865619 0
0.166028 0.112799 0.0112017 0.566675 -0.929074 0
0.165043 0.119099 0 0.524765 -0.938152 0
0.164884 0.120157 0.0140515 0.517792 -0.939651 0
0.164884 0.120157 0.000548542 0.517792 -0.939651 0
0.165043 0.119099 0.0104225 0.524765 -0.938152 0
0.165043 0.119099 0.0146 0.524765 -0.938152 0
0.164739 0.120317 0.0146 0.516884 -0.939066 0
0.164739 0.120317 0.0135508 0.516884 -0.939066 0
0.164739 0.120317 0 0.516884 -0.939066 0
0.164774 0.120046 0 0.518642 -0.938456 0
0.164774 0.120046 0.0146 0.518642 -0.938456 0
0.165687 0.116709 0 0.539581 -0.89347 0
0.165436 0.116457 0.00135502 0.542094 -0.934629 0
0.165687 0.116709 0.0146 0.539581 -0.89347 0
0.165436 0.116457 0.013245 0.542094 -0.934629 0
0.164321 0.123844 0.00249228 0.493039 -0.941728 0
0.164816 0.120546 0.000785935 0.51528 -0.94043 0
0.164321 0.123844 0.0121077 0.493039 -0.941728 0
0.164816 0.120546 0.0138141 0.51528 -0.94043 0
0.163826 0.124571 0.0146 0.488895 -0.939501 0
0.163826 0.124571 0.0104014 0.488895 -0.939501 0
0.163826 0.124571 0 0.488895 -0.939501 0
0.163987 0.123509 0 0.495512 -0.937172 0
0.163987 0.123509 0.0146 0.495512 -0.937172 0
0.163702 0.126565 0.00714813 0.476197 -0.938014 0
0.163015 0.128825 0.0146 0.46173 -0.911477 0
0.163015 0.128825 0.00760224 0.46173 -0.911477 0
0.163015 0.128825 0 0.46173 -0.911477 0
0.16331 0.127082 0 0.471947 -0.903437 0
0.16331 0.127082 0.0146 0.471947 -0.903437 0
0.162393 0.131033 0.00739364 0.450886 -0.954618 0
0.162273 0.133078 0.0146 0.439226 -0.898184 0
0.162273 0.133078 0.00504271 0.439226 -0.898184 0
0.162273 0.133078 0 0.439226 -0.898184 0
0.162686 0.130709 0 0.452784 -0.878969 0
0.162686 0.130709 0.0146 0.452784 -0.878969 0
0.161371 0.13677 0.0126694 0.419069 -0.95821 0
0.161548 0.137332 0.0146 0.416683 -0.919254 0
0.161371 0.13677 0.00193062 0.419069 -0.95821 0
0.161548 0.137332 0.00254195 0.416683 -0.919254 0
0.161548 0.137332 0 0.416683 -0.919254 0
0.161717 0.133989 0.00312331 0.434329 -0.955515 0
0.162101 0.134375 0 0.433435 -0.886737 0
0.162101 0.134375 0.0146 0.433435 -0.886737 0
0.161717 0.133989 0.0114767 0.434329 -0.955515 0
0.160812 0.141295 0 0.395021 -0.961236 0
0.160781 0.141555 0.0144932 0.393633 -0.961447 0
0.160781 0.141555 0.0001068 0.393633 -0.961447 0
0.160812 0.141295 0.0135997 0.395021 -0.961236 0
0.160812 0.141295 0.0146 0.395021 -0.961236 0
0.160753 0.141586 0.0146 0.393515 -0.961315 0
0.160753 0.141586 0.0143974 0.393515 -0.961315 0
0.160753 0.141586 0 0.393515 -0.961315 0
0.160758 0.141533 0 0.393799 -0.961238 0
0.160758 0.141533 0.0146 0.393799 -0.961238 0
0.161483 0.138008 0 0.411882 -0.912002 0
0.16123 0.137753 0.00144191 0.413825 -0.958473 0
0.161483 0.138008 0.0146 0.411882 -0.912002 0
0.16123 0.137753 0.0131581 0.413825 -0.958473 0
0.160338 0.145364 0.00163347 0.37378 -0.963033 0
0.160772 0.141627 0.000137888 0.39326 -0.961537 0
0.160338 0.145364 0.0129665 0.37378 -0.963033 0
0.160772 0.141627 0.0144621 0.39326 -0.961537 0
0.159992 0.14584 0.0146 0.371941 -0.961304 0
0.159992 0.14584 0.0117739 0.371941 -0.961304 0
0.159992 0.14584 0 0.371941 -0.961304 0
0.160075 0.1451 0 0.375729 -0.960342 0
0.160075 0.1451 0.0146 0.375729 -0.960342 0
0.159825 0.149103 0.00340278 0.353486 -0.961377 0
0.160146 0.146509 0.00229481 0.368062 -0.964441 0
0.159825 0.149103 0.0111972 0.353486 -0.961377 0
0.160146 0.146509 0.0123052 0.368062 -0.964441 0
0.159313 0.150094 0.0146 0.349145 -0.95735 0
0.159313 0.150094 0.009431 0.349145 -0.95735 0
0.159313 0.150094 0 0.349145 -0.95735 0
0.159484 0.14876 0 0.355609 -0.955419 0
0.159484 0.14876 0.0146 0.355609 -0.955419 0
0.159196 0.152151 0.00721932 0.339215 -0.960084 0
0.158684 0.154348 0.0146 0.326074 -0.924215 0
0.158684 0.154348 0.00726008 0.326074 -0.924215 0
0.158684 0.154348 0 0.326074 -0.924215 0
0.15894 0.152467 0 0.334408 -0.917146 0
0.15894 0.152467 0.0146 0.334408 -0.917146 0
0.158141 0.156542 0.00737598 0.320752 -0.971772 0
0.1581 0.158602 0.0146 0.3089 -0.904977 0
0.1581 0.158602 0.00524597 0.3089 -0.904977 0
0.1581 0.158602 0 0.3089 -0.904977 0
0.158428 0.156206 0 0.319223 -0.889103 0
0.158428 0.156206 0.0146 0.319223 -0.889103 0
0.157322 0.162111 0.0120404 0.296269 -0.972353 0
0.157536 0.162856 0.0146 0.292901 -0.918005 0
0.157322 0.162111 0.00255956 0.296269 -0.972353 0
0.157536 0.162856 0.00329815 0.292901 -0.918005 0
0.157536 0.162856 0 0.292901 -0.918005 0
0.157574 0.159602 0.00343083 0.30727 -0.971329 0
0.157951 0.159981 0 0.30547 -0.893103 0
0.157951 0.159981 0.0146 0.30547 -0.893103 0
0.157574 0.159602 0.0111692 0.30727 -0.971329 0
0.156831 0.166858 0.0137343 0.276096 -0.97318 0
0.156946 0.16711 0.0146 0.27481 -0.947358 0
0.156831 0.166858 0.000865677 0.276096 -0.97318 0
0.156946 0.16711 0.00126327 0.27481 -0.947358 0
0.156946 0.16711 0 0.27481 -0.947358 0
0.157155 0.163435 0.00198612 0.290649 -0.972107 0
0.157461 0.163743 0 0.288826 -0.909842 0
0.157461 0.163743 0.0146 0.288826 -0.909842 0
0.157155 0.163435 0.0126139 0.290649 -0.972107 0
0.15658 0.169595 0 0.264805 -0.973608 0
0.156433 0.171217 0.0140948 0.258102 -0.97399 0
0.156433 0.171217 0.000505238 0.258102 -0.97399 0
0.15658 0.169595 0.00852787 0.264805 -0.973608 0
0.15658 0.169595 0.0146 0.264805 -0.973608 0
0.156315 0.171364 0.0146 0.257764 -0.973399 0
0.156315 0.171364 0.0136865 0.257764 -0.973399 0
0.156315 0.171364 0 0.257764 -0.973399 0
0.156334 0.171117 0 0.258784 -0.973217 0
0.156334 0.171117 0.0146 0.258784 -0.973217 0
0.156922 0.167454 0 0.272724 -0.944067 0
0.156785 0.167317 0.000709031 0.274197 -0.97312 0
0.156922 0.167454 0.0146 0.272724 -0.944067 0
0.156785 0.167317 0.013891 0.274197 -0.97312 0
0.156071 0.175107 0.00175488 0.242347 -0.974033 0
0.156398 0.171547 0.000625596 0.256763 -0.974195 0
0.156071 0.175107 0.0128451 0.242347 -0.974033 0
0.156398 0.171547 0.0139744 0.256763 -0.974195 0
0.155731 0.175618 0.0146 0.241067 -0.972186 0
0.155731 0.175618 0.0116725 0.241067 -0.972186 0
0.155731 0.175618 0 0.241067 -0.972186 0
0.155801 0.174836 0 0.244217 -0.971679 0
0.155801 0.174836 0.0146 0.244217 -0.971679 0
0.155656 0.178944 0.00318564 0.226752 -0.972175 0
0.155915 0.176287 0.00229415 0.237729 -0.974739 0
0.155656 0.178944 0.0114144 0.226752 -0.972175 0
0.155915 0.176287 0.0123059 0.237729 -0.974739 0
0.155193 0.179872 0.0146 0.224068 -0.968616 0
0.155193 0.179872 0.00981698 0.224068 -0.968616 0
0.155193 0.179872 0 0.224068 -0.968616 0
0.15532 0.178606 0 0.229004 -0.967755 0
0.15532 0.178606 0.0146 0.229004 -0.967755 0
0.155209 0.181919 0.00720797 0.214547 -0.970745 0
0.154682 0.184126 0.0146 0.204119 -0.955937 0
0.154682 0.184126 0.00805307 0.204119 -0.955937 0
0.154682 0.184126 0 0.204119 -0.955937 0
0.154868 0.182405 0 0.210319 -0.953796 0
0.154868 0.182405 0.0146 0.210319 -0.953796 0
0.154386 0.186262 0.00730962 0.200165 -0.978249 0
0.154197 0.18838 0.0146 0.183935 -0.920634 0
0.154197 0.18838 0.00638005 0.183935 -0.920634 0
0.154197 0.18838 0 0.183935 -0.920634 0
0.154434 0.186223 0 0.190807 -0.913049 0
0.154434 0.186223 0.0146 0.190807 -0.913049 0
0.153647 0.19058 0.00738308 0.184879 -0.976374 0
0.153743 0.192634 0.0146 0.171443 -0.901725 0
0.153743 0.192634 0.004812 0.171443 -0.901725 0
0.153743 0.192634 0 0.171443 -0.901725 0
0.154025 0.190066 0 0.179587 -0.886579 0
0.154025 0.190066 0.0146 0.179587 -0.886579 0
0.153061 0.196172 0.012141 0.164898 -0.974701 0
0.153291 0.196888 0.0146 0.160518 -0.911502 0
0.153061 0.196172 0.00245901 0.164898 -0.974701 0
0.153291 0.196888 0.00325553 0.160518 -0.911502 0
0.153291 0.196888 0 0.160518 -0.911502 0
0.153271 0.193562 0.00318439 0.174275 -0.974994 0
0.153635 0.193928 0 0.170496 -0.888855 0
0.153635 0.193928 0.0146 0.170496 -0.888855 0
0.153271 0.193562 0.0114156 0.174275 -0.974994 0
0.152668 0.20082 0.0134939 0.148408 -0.97307 0
0.152816 0.201142 0.0146 0.1464 -0.935408 0
0.152668 0.20082 0.00110606 0.148408 -0.97307 0
0.152816 0.201142 0.00161499 0.1464 -0.935408 0
0.152816 0.201142 0 0.1464 -0.935408 0
0.152928 0.197471 0.00200088 0.160338 -0.973815 0
0.153229 0.197774 0 0.157639 -0.902986 0
0.153229 0.197774 0.0146 0.157639 -0.902986 0
0.152928 0.197471 0.0125991 0.160338 -0.973815 0
0.152348 0.205015 0 0.133477 -0.9713 0
0.152321 0.205369 0.0145084 0.132214 -0.971179 0
0.152321 0.205369 9.15642e-05 0.132214 -0.971179 0
0.152348 0.205015 0.0132909 0.133477 -0.9713 0
0.152348 0.205015 0.0146 0.133477 -0.9713 0
0.152299 0.205396 0.0146 0.132174 -0.971074 0
0.152299 0.205396 0.014433 0.132174 -0.971074 0
0.152299 0.205396 0 0.132174 -0.971074 0
0.152302 0.20535 0 0.132335 -0.971062 0
0.152302 0.20535 0.0146 0.132335 -0.971062 0
0.152788 0.201585 0 0.144157 -0.931751 0
0.152617 0.201413 0.000929824 0.146311 -0.972602 0
0.152788 0.201585 0.0146 0.144157 -0.931751 0
0.152617 0.201413 0.0136702 0.146311 -0.972602 0
0.152026 0.209326 0.00111196 0.118005 -0.968683 0
0.152317 0.205427 0.000107602 0.13201 -0.97119 0
0.152026 0.209326 0.013488 0.118005 -0.968683 0
0.152317 0.205427 0.0144924 0.13201 -0.97119 0
0.151796 0.20965 0.0146 0.117433 -0.967453 0
0.151796 0.20965 0.0126948 0.117433 -0.967453 0
0.151796 0.20965 0 0.117433 -0.967453 0
0.151831 0.209131 0 0.119256 -0.967357 0
0.151831 0.209131 0.0146 0.119256 -0.967357 0
0.151712 0.213265 0.00219241 0.103752 -0.964441 0
0.151958 0.210042 0.00134487 0.115528 -0.96876 0
0.151712 0.213265 0.0124076 0.103752 -0.964441 0
0.151958 0.210042 0.0132551 0.115528 -0.96876 0
0.151336 0.213904 0.0146 0.102356 -0.961828 0
0.151336 0.213904 0.0111101 0.102356 -0.961828 0
0.151336 0.213904 0 0.102356 -0.961828 0
0.151409 0.21296 0 0.105673 -0.961734 0
0.151409 0.21296 0.0146 0.105673 -0.961734 0
0.151331 0.217136 0.00350677 0.0894849 -0.957857 0
0.151546 0.21471 0.00276641 0.0988643 -0.964578 0
0.151331 0.217136 0.0110932 0.0894849 -0.957857 0
0.151546 0.21471 0.0118336 0.0988643 -0.964578 0
0.150853 0.218158 0.0146 0.0866038 -0.952305 0
0.150853 0.218158 0.00944273 0.0866038 -0.952305 0
0.150853 0.218158 0 0.0866038 -0.952305 0
0.150983 0.216786 0 0.0913449 -0.952105 0
0.150983 0.216786 0.0146 0.0913449 -0.952105 0
0.150821 0.22021 0.00721427 0.078784 -0.956167 0
0.150252 0.222412 0.0146 0.0683215 -0.934435 0
0.150252 0.222412 0.00737086 0.0683215 -0.934435 0
0.150252 0.222412 0 0.0683215 -0.934435 0
0.150498 0.220552 0 0.0741694 -0.93228 0
0.150498 0.220552 0.0146 0.0741694 -0.93228 0
0.14966 0.224618 0.00739049 0.0660897 -0.960766 0
0.14957 0.226666 0.0146 0.049213 -0.896208 0
0.14957 0.226666 0.00501643 0.049213 -0.896208 0
0.14957 0.226666 0 0.049213 -0.896208 0
0.14995 0.224255 0 0.054997 -0.881458 0
0.14995 0.224255 0.0146 0.054997 -0.881458 0