x,y,z,U_0,U_1,U_2
0,0.29,0.0073,0,0,0
0.00539394,0.29,0.0073,-0.0110923,-0.167597,0
0.0107879,0.29,0.0073,-0.0221655,-0.32091,0
0.0161818,0.29,0.0073,-0.0332997,-0.362479,0
0.0215758,0.29,0.0073,-0.0445046,-0.363267,0
0.0269697,0.29,0.0073,-0.0558849,-0.363658,0
0.0323636,0.29,0.0073,-0.0676047,-0.363247,0
0.0377576,0.29,0.0073,-0.0793266,-0.362844,0
0.0431515,0.29,0.0073,-0.0916198,-0.362145,0
0.0485455,0.29,0.0073,-0.103928,-0.361372,0
0.0539394,0.29,0.0073,-0.116746,-0.360343,0
0.0593333,0.29,0.0073,-0.129851,-0.358994,0
0.0647273,0.29,0.0073,-0.143253,-0.357539,0
0.0701212,0.29,0.0073,-0.157326,-0.3553,0
0.0755152,0.29,0.0073,-0.171398,-0.353061,0
0.0809091,0.29,0.0073,-0.186537,-0.34977,0
0.086303,0.29,0.0073,-0.201692,-0.346203,0
0.091697,0.29,0.0073,-0.217594,-0.341754,0
0.0970909,0.29,0.0073,-0.233841,-0.336279,0
0.102485,0.29,0.0073,-0.250493,-0.330461,0
0.107879,0.29,0.0073,-0.267655,-0.322347,0
0.113273,0.29,0.0073,-0.284818,-0.314233,0
0.118667,0.29,0.0073,-0.302611,-0.303298,0
0.124061,0.29,0.0073,-0.320117,-0.291653,0
0.129455,0.29,0.0073,-0.337645,-0.277921,0
0.134848,0.29,0.0073,-0.354215,-0.261863,0
0.140242,0.29,0.0073,-0.370959,-0.24505,0
0.145636,0.29,0.0073,-0.384591,-0.224263,0
0.15103,0.29,0.0073,-0.398223,-0.203477,0
0.156424,0.29,0.0073,-0.40841,-0.179316,0
0.161818,0.29,0.0073,-0.416958,-0.154704,0
0.167212,0.29,0.0073,-0.423081,-0.128776,0
0.172606,0.29,0.0073,-0.425201,-0.102537,0
0.178,0.29,0.0073,-0.426941,-0.0758265,0
0.183394,0.29,0.0073,-0.422813,-0.0504802,0
0.188788,0.29,0.0073,-0.418741,-0.0252937,0
0.194182,0.29,0.0073,-0.410797,-0.00191029,0
0.199576,0.29,0.0073,-0.401555,0.0198346,0
0.20497,0.29,0.0073,-0.390642,0.0403098,0
0.210364,0.29,0.0073,-0.37802,0.0575281,0
0.215758,0.29,0.0073,-0.365219,0.0748094,0
0.221152,0.29,0.0073,-0.351061,0.0878446,0
0.226545,0.29,0.0073,-0.337146,0.100788,0
0.231939,0.29,0.0073,-0.32279,0.111399,0
0.237333,0.29,0.0073,-0.308749,0.120677,0
0.242727,0.29,0.0073,-0.294567,0.129055,0
0.248121,0.29,0.0073,-0.281028,0.135367,0
0.253515,0.29,0.0073,-0.26747,0.141672,0
0.258909,0.29,0.0073,-0.254495,0.145735,0
0.264303,0.29,0.0073,-0.24178,0.149718,0
0.269697,0.29,0.0073,-0.229658,0.15256,0
0.275091,0.29,0.0073,-0.21833,0.154734,0
0.280485,0.29,0.0073,-0.207269,0.156498,0
0.285879,0.29,0.0073,-0.197659,0.157247,0
0.291273,0.29,0.0073,-0.188049,0.157996,0
0.296667,0.29,0.0073,-0.175693,0.157925,0
0.302061,0.29,0.0073,-0.166063,0.157435,0
0.307455,0.29,0.0073,-0.157015,0.156505,0
0.312848,0.29,0.0073,-0.147475,0.15528,0
0.318242,0.29,0.0073,-0.139207,0.154053,0
0.323636,0.29,0.0073,-0.132906,0.152857,0
0.32903,0.29,0.0073,-0.126606,0.15166,0
0.334424,0.29,0.0073,-0.119666,0.149759,0
0.339818,0.29,0.0073,-0.112861,0.147839,0
0.345212,0.29,0.0073,-0.106281,0.145792,0
0.350606,0.29,0.0073,-0.100609,0.143632,0
0.356,0.29,0.0073,-0.094937,0.141472,0
0.361394,0.29,0.0073,-0.0896766,0.139171,0
0.366788,0.29,0.0073,-0.0847411,0.13689,0
0.372182,0.29,0.0073,-0.0798082,0.134591,0
0.377576,0.29,0.0073,-0.0755044,0.132238,0
0.38297,0.29,0.0073,-0.0712311,0.129928,0
0.388364,0.29,0.0073,-0.0671604,0.127579,0
0.393758,0.29,0.0073,-0.0634604,0.125309,0
0.399152,0.29,0.0073,-0.0597604,0.12304,0
0.404545,0.29,0.0073,-0.0564297,0.12079,0
0.409939,0.29,0.0073,-0.0532231,0.118611,0
0.415333,0.29,0.0073,-0.0500773,0.116407,0
0.420727,0.29,0.0073,-0.0472921,0.114354,0
0.426121,0.29,0.0073,-0.044507,0.112301,0
0.431515,0.29,0.0073,-0.0419151,0.110291,0
0.436909,0.29,0.0073,-0.0394874,0.108389,0
0.442303,0.29,0.0073,-0.0370596,0.106487,0
0.447697,0.29,0.0073,-0.0349142,0.104705,0
0.453091,0.29,0.0073,-0.0327875,0.10297,0
0.458485,0.29,0.0073,-0.0307455,0.10126,0
0.463879,0.29,0.0073,-0.0288705,0.0997025,0
0.469273,0.29,0.0073,-0.0269956,0.0981448,0
0.474667,0.29,0.0073,-0.0252744,0.0966875,0
0.480061,0.29,0.0073,-0.0236082,0.0953126,0
0.485455,0.29,0.0073,-0.0219613,0.0939346,0
0.490848,0.29,0.0073,-0.0204712,0.0927396,0
0.496242,0.29,0.0073,-0.0189763,0.09155,0
0.501636,0.29,0.0073,-0.0175575,0.0904265,0
0.50703,0.29,0.0073,-0.016201,0.0894228,0
0.512424,0.29,0.0073,-0.0148445,0.0884192,0
0.517818,0.29,0.0073,-0.013594,0.0875552,0
0.523212,0.29,0.0073,-0.012347,0.0867369,0
0.528606,0.29,0.0073,-0.0111335,0.0859464,0
0.534,0.29,0.0073,-0.00997052,0.0853122,0
