# Probe 0 (0.29 0.5 0.0073)
# Time        0            
0.00119048    (-0.00263219 0.000284107 0)
0.00262605    (-0.0283716 -0.049901 0)
0.00431798    (-0.0222574 -0.0456989 0)
0.00630415    (-0.0101235 -0.0124433 0)
0.0087317     (-0.0153251 -0.00668432 0)
0.0116794     (-0.0179872 -0.00292345 0)
0.0151631     (-0.0225481 -0.000221866 0)
0.0195177     (-0.0287966 0.00116139 0)
0.0245981     (-0.0361434 0.00151631 0)
0.0309486     (-0.0452347 0.00193999 0)
0.0372991     (-0.0537032 0.00206299 0)
0.0436495     (-0.0622698 0.001116 0)
0.05          (-0.0694417 0.00255838 0)
0.0571429     (-0.077667 0.00256719 0)
0.0642857     (-0.085411 0.00331582 0)
0.0702381     (-0.088761 0.00509882 0)
0.0761905     (-0.0928651 0.00573949 0)
0.0821429     (-0.0940285 0.00673777 0)
0.0880952     (-0.0988829 0.0073796 0)
0.0940476     (-0.101818 0.00766455 0)
0.1           (-0.105045 0.00767585 0)
0.103846      (-0.104661 0.00820373 0)
0.107396      (-0.104839 0.00883739 0)
0.110674      (-0.104412 0.00906457 0)
0.113699      (-0.106043 0.00845377 0)
0.116491      (-0.106768 0.00835662 0)
0.118885      (-0.107185 0.00902921 0)
0.121107      (-0.107423 0.00938326 0)
0.123171      (-0.107428 0.00921706 0)
0.125087      (-0.107446 0.00947338 0)
0.126867      (-0.107544 0.00974489 0)
0.128519      (-0.10713 0.00981301 0)
0.130172      (-0.10724 0.00956742 0)
0.131697      (-0.106855 0.00959213 0)
0.133222      (-0.10627 0.00952863 0)
0.134747      (-0.105791 0.00933388 0)
0.136273      (-0.105395 0.009255 0)
0.137798      (-0.105211 0.00936571 0)
0.139323      (-0.104663 0.00978341 0)
0.141103      (-0.104489 0.00964958 0)
0.143327      (-0.104103 0.00945545 0)
0.145551      (-0.103008 0.00897585 0)
0.147776      (-0.102254 0.00793997 0)
0.15          (-0.101506 0.00819103 0)
0.152381      (-0.100719 0.0080633 0)
0.154887      (-0.0992586 0.00717685 0)
0.157541      (-0.0982372 0.00859672 0)
0.160195      (-0.0966996 0.00920348 0)
0.163038      (-0.0954378 0.00774986 0)
0.165881      (-0.0942643 0.00833943 0)
0.168983      (-0.0923882 0.00673481 0)
0.172085      (-0.0937944 0.00859831 0)
0.175186      (-0.0947184 0.00760957 0)
0.178731      (-0.0952219 0.00758282 0)
0.182276      (-0.0954866 0.00651791 0)
0.185821      (-0.0960467 0.00611343 0)
0.189366      (-0.0972888 0.00576081 0)
0.19291       (-0.0991644 0.0061856 0)
0.196455      (-0.102776 0.00674925 0)
0.2           (-0.105167 0.00467594 0)
0.203571      (-0.106356 0.00358047 0)
0.207143      (-0.111215 0.00449189 0)
0.211039      (-0.114733 0.00289625 0)
0.214935      (-0.116929 0.00379496 0)
0.218831      (-0.117608 0.000559826 0)
0.222727      (-0.122416 0.00186936 0)
0.226623      (-0.125954 0.00262144 0)
0.230519      (-0.13463 -0.00138398 0)
0.234416      (-0.143363 -0.0014437 0)
0.238312      (-0.148641 -0.00116825 0)
0.242208      (-0.156448 -0.00296676 0)
0.246104      (-0.163217 -0.00428948 0)
0.25          (-0.169542 -0.0052931 0)
0.254167      (-0.176143 -0.00580088 0)
0.258333      (-0.184752 -0.0090937 0)
0.2625        (-0.191685 -0.010201 0)
0.266667      (-0.198472 -0.0116439 0)
0.270833      (-0.205306 -0.0146444 0)
0.275         (-0.217097 -0.0161581 0)
0.279167      (-0.22138 -0.0199326 0)
0.283333      (-0.233393 -0.0196413 0)
0.2875        (-0.239514 -0.0214118 0)
0.291667      (-0.246376 -0.02496 0)
0.295833      (-0.252914 -0.027569 0)
0.3           (-0.26258 -0.0310548 0)
0.304167      (-0.26855 -0.0333019 0)
0.308333      (-0.27438 -0.0350982 0)
0.3125        (-0.27008 -0.0410737 0)
0.316667      (-0.290823 -0.0399418 0)
0.320833      (-0.29705 -0.0422333 0)
0.325         (-0.292707 -0.0470087 0)
0.329167      (-0.299801 -0.0482109 0)
0.333333      (-0.306039 -0.0506743 0)
0.3375        (-0.315623 -0.052708 0)
0.341667      (-0.312489 -0.0565959 0)
0.345833      (-0.315875 -0.0587132 0)
0.35          (-0.322629 -0.0610348 0)
0.354167      (-0.328883 -0.0634932 0)
0.358333      (-0.328407 -0.0664695 0)
0.3625        (-0.326858 -0.0687751 0)
0.366667      (-0.334292 -0.0701889 0)
0.370833      (-0.340004 -0.0721178 0)
0.375         (-0.337636 -0.0759021 0)
0.379167      (-0.342056 -0.0782367 0)
0.383333      (-0.348829 -0.0809714 0)
0.3875        (-0.354897 -0.0823423 0)
0.391667      (-0.354311 -0.085915 0)
0.395833      (-0.352928 -0.0890023 0)
0.4           (-0.363396 -0.0918682 0)
