# p  POINT_DATA 258
# x y z  p
0.253913 0.0417284 0 98711.7
0.253634 0.0418673 0.0142793 98703.7
0.253634 0.0418673 0.000320709 98703.7
0.253913 0.0417284 0.0139414 98711.7
0.253913 0.0417284 0.0146 98711.7
0.253034 0.0419991 0.0146 98704.6
0.253034 0.0419991 0.013589 98704.6
0.253034 0.0419991 0 98704.6
0.253429 0.0417702 0 98711.7
0.253429 0.0417702 0.0146 98711.7
0.254481 0.0417309 0.0139474 98697
0.254481 0.0417309 0.000652622 98697
0.258191 0.0419991 0.0146 98730.3
0.258191 0.0419991 0.00492014 98730.3
0.258191 0.0419991 0 98730.3
0.241217 0.0455908 0 98714.4
0.238941 0.0469232 0.0119823 98688.7
0.238941 0.0469232 0.00261768 98688.7
0.241217 0.0455908 0.00873994 98714.4
0.241217 0.0455908 0.0146 98714.4
0.235013 0.047999 0.0146 98699.5
0.235013 0.047999 0.00746515 98699.5
0.235013 0.047999 0 98699.5
0.237731 0.0463511 0 98735
0.237731 0.0463511 0.0146 98735
0.246048 0.0442819 0 98734.1
0.244784 0.0436847 0.0073 98702.8
0.246048 0.0442819 0.0146 98734.1
0.266609 0.0425412 0 98780.7
0.266609 0.0425412 0.00131913 98780.7
0.266153 0.0422142 0.00052349 98783.1
0.266153 0.0422142 0.0140765 98783.1
0.266609 0.0425412 0.0146 98780.7
0.275342 0.0461263 0.00455682 98764.3
0.275342 0.0461263 0.0100432 98764.3
0.273747 0.0446253 0.00639063 98772
0.273747 0.0446253 0.00820937 98772
0.276967 0.047999 0.0146 98862.7
0.276967 0.047999 0.0119117 98862.7
0.276967 0.047999 0 98862.7
0.26929 0.043266 0.00308298 98744
0.26929 0.043266 0.011517 98744
0.228522 0.0528802 0 98701.2
0.224775 0.0569945 0.0073 98650.4
0.228522 0.0528802 0.00558424 98701.2
0.228522 0.0528802 0.0146 98701.2
0.216224 0.0607609 0.0146 98684
0.216224 0.0607609 0.000457432 98684
0.216224 0.0607609 0 98684
0.223369 0.0555809 0 98731.6
0.223369 0.0555809 0.0146 98731.6
0.232055 0.0515502 0 98710
0.230647 0.050135 0.00244367 98703.8
0.232055 0.0515502 0.0146 98710
0.230647 0.050135 0.0121563 98703.8
0.279304 0.0510758 0 98842.2
0.279304 0.0510758 0.00352 98842.2
0.278384 0.0489241 0.00105842 98871.1
0.278384 0.0489241 0.0135416 98871.1
0.279304 0.0510758 0.0146 98842.2
0.282029 0.0580218 0.0114664 98615.5
0.282029 0.0580218 0.00313356 98615.5
0.289751 0.0585001 0.0120136 98614.1
0.289751 0.0585001 0.00258641 98614.1
0.292 0.0529831 0 98940.7
0.292 0.0529831 0.00570201 98940.7
0.292 0.0529831 0.0146 98940.7
0.283156 0.0518703 0 98823
0.283156 0.0518703 0.0146 98823
0.20313 0.0699098 0 98698.6
0.201649 0.0720335 0.0128962 98678.4
0.201649 0.0720335 0.00170377 98678.4
0.20313 0.0699098 0.0104667 98698.6
0.20313 0.0699098 0.0146 98698.6
0.198968 0.0735228 0.0146 98688.3
0.198968 0.0735228 0.00981271 98688.3
0.198968 0.0735228 0 98688.3
0.200533 0.0709119 0 98718.8
0.200533 0.0709119 0.0146 98718.8
0.215826 0.0610467 0 98684.3
0.215826 0.0610467 0.000326935 98684.3
0.215403 0.0611858 0.000486144 98682.5
0.215403 0.0611858 0.0141139 98682.5
0.215826 0.0610467 0.0146 98684.3
0.20861 0.0662694 0 98724.8
0.207592 0.0652458 0.0073 98686.3
0.20861 0.0662694 0.0146 98724.8
0.216059 0.0609949 0 98684.5
0.215942 0.0608779 0.000133853 98684.5
0.216059 0.0609949 0.0146 98684.5
0.215942 0.0608779 0.0144661 98684.5
0.190435 0.0810965 0 98688.3
0.188388 0.0842272 0.0122461 98665.9
0.188388 0.0842272 0.00235395 98665.9
0.190435 0.0810965 0.0086645 98688.3
0.190435 0.0810965 0.0146 98688.3
0.185058 0.0862847 0.0146 98677.1
0.185058 0.0862847 0.00841683 98677.1
0.185058 0.0862847 0 98677.1
0.187012 0.0828443 0 98711.7
0.187012 0.0828443 0.0146 98711.7
0.195042 0.0781545 0 98703.8
0.193551 0.0766557 0.00358414 98691
0.195042 0.0781545 0.0146 98703.8
0.193551 0.0766557 0.0110159 98691
0.177739 0.0933904 0 98674.5
0.175584 0.0968798 0.0121211 98653.9
0.175584 0.0968798 0.00247894 98653.9
0.177739 0.0933904 0.00812911 98674.5
0.177739 0.0933904 0.0146 98674.5
0.171877 0.0990467 0.0146 98664.4
0.171877 0.0990467 0.00785837 98664.4
0.171877 0.0990467 0 98664.4
0.174114 0.0954023 0 98695.4
0.174114 0.0954023 0.0146 98695.4
0.182099 0.090667 0 98686
0.180584 0.0891449 0.00327215 98677.7
0.182099 0.090667 0.0146 98686
0.180584 0.0891449 0.0113279 98677.7
0.165043 0.105295 0 98664.1
0.162434 0.109186 0.0115996 98644.5
0.162434 0.109186 0.00300037 98644.5
0.165043 0.105295 0.0071486 98664.1
0.165043 0.105295 0.0146 98664.1
0.156765 0.111809 0.0146 98655.2
0.156765 0.111809 0.00507935 98655.2
0.156765 0.111809 0 98655.2
0.160836 0.107579 0 98682.2
0.160836 0.107579 0.0146 98682.2
0.169144 0.103169 0 98670.8
0.167616 0.101632 0.00295815 98666
0.169144 0.103169 0.0146 98670.8
0.167616 0.101632 0.0116419 98666
0.139652 0.121959 0 98658
0.13843 0.123342 0.0131943 98648.9
0.13843 0.123342 0.0014057 98648.9
0.139652 0.121959 0.0116125 98658
0.139652 0.121959 0.0146 98658
0.134384 0.124571 0.0146 98653.3
0.134384 0.124571 0.00854117 98653.3
0.134384 0.124571 0 98653.3
0.137544 0.122451 0 98664.8
0.137544 0.122451 0.0146 98664.8
0.152348 0.115184 0 98656.4
0.145202 0.120071 0.00699412 98638.7
0.152348 0.115184 0.00386144 98656.4
0.152348 0.115184 0.0146 98656.4
0.146274 0.118465 0 98672
0.146274 0.118465 0.0146 98672
0.15491 0.114385 0 98658
0.153791 0.113259 0.00165974 98657.5
0.15491 0.114385 0.0146 98658
0.153791 0.113259 0.0129403 98657.5
0.101565 0.136929 0 98652.9
0.101363 0.137129 0.0143675 98651.3
0.101363 0.137129 0.000232459 98651.3
0.101565 0.136929 0.0141384 98652.9
0.101565 0.136929 0.0146 98652.9
0.100277 0.137332 0.0146 98651.9
0.100277 0.137332 0.0131187 98651.9
0.100277 0.137332 0 98651.9
0.101207 0.136973 0 98653.5
0.101207 0.136973 0.0146 98653.5
0.114261 0.132759 0 98660.5
0.111785 0.134844 0.011753 98645.6
0.111785 0.134844 0.00284705 98645.6
0.114261 0.132759 0.00936798 98660.5
0.114261 0.132759 0.0146 98660.5
0.101872 0.137025 0.0142477 98650.6
0.101872 0.137025 0.000352319 98650.6
0.110558 0.133611 0 98666.2
0.110558 0.133611 0.0146 98666.2
0.126957 0.128153 0 98657.8
0.126957 0.128153 0.00409817 98657.8
0.120837 0.130332 0.00738734 98644.3
0.126957 0.128153 0.0146 98657.8
0.120336 0.130678 0 98667.4
0.120336 0.130678 0.0146 98667.4
0.129799 0.127428 0 98659.2
0.128741 0.126364 0.00205234 98657.7
0.129799 0.127428 0.0146 98659.2
0.128741 0.126364 0.0125477 98657.7
0.0253913 0.149995 0 98650.8
0.0253354 0.150038 0.0145358 98650.3
0.0253354 0.150038 6.42389e-05 98650.3
0.0253913 0.149995 0.0144868 98650.8
0.0253913 0.149995 0.0146 98650.8
0.0235748 0.150094 0.0146 98650.5
0.0235748 0.150094 0.0125111 98650.5
0.0235748 0.150094 0 98650.5
0.0252954 0.149998 0 98650.8
0.0252954 0.149998 0.0146 98650.8
0.038087 0.148889 0 98653.7
0.037393 0.149397 0.0138019 98648.8
0.037393 0.149397 0.000798061 98648.8
0.038087 0.148889 0.013221 98653.7
0.038087 0.148889 0.0146 98653.7
0.0254521 0.150033 0.0145301 98650.3
0.0254521 0.150033 6.99112e-05 98650.3
0.0369413 0.148943 0 98654.1
0.0369413 0.148943 0.0146 98654.1
0.0507826 0.147437 0 98656.5
0.0491901 0.148494 0.0127686 98646.6
0.0491901 0.148494 0.00183144 98646.6
0.0507826 0.147437 0.0115602 98656.5
0.0507826 0.147437 0.0146 98656.5
0.0388908 0.149286 0.0136755 98648.3
0.0388908 0.149286 0.000924469 98648.3
0.0483179 0.147617 0 98657.6
0.0483179 0.147617 0.0146 98657.6
0.0634783 0.145627 0 98658.9
0.0606249 0.147226 0.0113186 98644.2
0.0606249 0.147226 0.00328138 98644.2
0.0634783 0.145627 0.0094895 98658.9
0.0634783 0.145627 0.0146 98658.9
0.0528072 0.148059 0.0122717 98645.2
0.0528072 0.148059 0.00232831 98645.2
0.0594873 0.146083 0 98660.9
0.0594873 0.146083 0.0146 98660.9
0.0761739 0.143378 0 98659.9
0.069579 0.145338 0.00720527 98642.8
0.0761739 0.143378 0.00691644 98659.9
0.0761739 0.143378 0.0146 98659.9
0.070478 0.144369 0 98663
0.070478 0.144369 0.0146 98663
0.0888696 0.140612 0 98657.4
0.0888696 0.140612 0.00375213 98657.4
0.0830176 0.141105 0.00749008 98652.9
0.0888696 0.140612 0.0146 98657.4
0.0812416 0.142427 0 98662.3
0.0812416 0.142427 0.0146 98662.3
0.091647 0.140124 0 98658.1
0.0907134 0.139186 0.0021204 98656.7
0.091647 0.140124 0.0146 98658.1
0.0907134 0.139186 0.0124796 98656.7
0.0126957 0.150676 0 98651.3
0.0126957 0.150676 0.00066574 98651.3
0.0123378 0.150454 0.000411532 98651.2
0.0123378 0.150454 0.0141885 98651.2
0.0126957 0.150676 0.0146 98651.3
0.000486973 0.150584 0.01404 98651.5
0 0.150897 0.0146 98651.6
0.000486973 0.150584 0.000560019 98651.5
0 0.150897 0.000918442 98651.6
0 0.150897 0 98651.6
0.000791043 0.15089 0 98651.6
0.000791043 0.15089 0.0146 98651.6
0.013259 0.150661 0 98651.3
0.0130371 0.150438 0.000392716 98651.3
0.013259 0.150661 0.0146 98651.3
0.0130371 0.150438 0.0142073 98651.3
0.293504 0.047999 0 99017.1
0.293504 0.047999 0.00365937 99017.1
0.293009 0.0501457 0.00245591 98968.5
0.293009 0.0501457 0.0121441 98968.5
0.293504 0.047999 0.0146 99017.1
0.293383 0.0509413 0 99026.2
0.293383 0.0509413 0.0146 99026.2
