# U  POINT_DATA 258
# x y z  U_x U_y U_z
0.253913 0.0417284 0 1.53343 0.400084 0
0.253634 0.0418673 0.0142793 1.53562 0.389478 0
0.253634 0.0418673 0.000320709 1.53562 0.389478 0
0.253913 0.0417284 0.0139414 1.53343 0.400084 0
0.253913 0.0417284 0.0146 1.53343 0.400084 0
0.253034 0.0419991 0.0146 1.53376 0.372581 0
0.253034 0.0419991 0.013589 1.53376 0.372581 0
0.253034 0.0419991 0 1.53376 0.372581 0
0.253429 0.0417702 0 1.53305 0.388657 0
0.253429 0.0417702 0.0146 1.53305 0.388657 0
0.254481 0.0417309 0.0139474 1.53341 0.41658 0
0.254481 0.0417309 0.000652622 1.53341 0.41658 0
0.258191 0.0419991 0.0146 1.38438 0.639036 0
0.258191 0.0419991 0.00492014 1.38438 0.639036 0
0.258191 0.0419991 0 1.38438 0.639036 0
0.241217 0.0455908 0 1.56369 0.0356727 0
0.238941 0.0469232 0.0119823 1.54072 -0.018489 0
0.238941 0.0469232 0.00261768 1.54072 -0.018489 0
0.241217 0.0455908 0.00873994 1.56369 0.0356727 0
0.241217 0.0455908 0.0146 1.56369 0.0356727 0
0.235013 0.047999 0.0146 1.49364 -0.0982187 0
0.235013 0.047999 0.00746515 1.49364 -0.0982187 0
0.235013 0.047999 0 1.49364 -0.0982187 0
0.237731 0.0463511 0 1.538 0.000521832 0
0.237731 0.0463511 0.0146 1.538 0.000521832 0
0.246048 0.0442819 0 1.53585 0.34084 0
0.244784 0.0436847 0.0073 1.57971 0.0240102 0
0.246048 0.0442819 0.0146 1.53585 0.34084 0
0.266609 0.0425412 0 1.07968 1.16734 0
0.266609 0.0425412 0.00131913 1.07968 1.16734 0
0.266153 0.0422142 0.00052349 1.11366 1.08817 0
0.266153 0.0422142 0.0140765 1.11366 1.08817 0
0.266609 0.0425412 0.0146 1.07968 1.16734 0
0.275342 0.0461263 0.00455682 0.597443 1.91538 0
0.275342 0.0461263 0.0100432 0.597443 1.91538 0
0.273747 0.0446253 0.00639063 0.581966 1.70592 0
0.273747 0.0446253 0.00820937 0.581966 1.70592 0
0.276967 0.047999 0.0146 0.708644 2.20473 0
0.276967 0.047999 0.0119117 0.708644 2.20473 0
0.276967 0.047999 0 0.708644 2.20473 0
0.26929 0.043266 0.00308298 0.869038 1.35017 0
0.26929 0.043266 0.011517 0.869038 1.35017 0
0.228522 0.0528802 0 1.38197 -0.311772 0
0.224775 0.0569945 0.0073 1.33816 -0.38089 0
0.228522 0.0528802 0.00558424 1.38197 -0.311772 0
0.228522 0.0528802 0.0146 1.38197 -0.311772 0
0.216224 0.0607609 0.0146 1.27364 -0.486229 0
0.216224 0.0607609 0.000457432 1.27364 -0.486229 0
0.216224 0.0607609 0 1.27364 -0.486229 0
0.223369 0.0555809 0 1.326 -0.369638 0
0.223369 0.0555809 0.0146 1.326 -0.369638 0
0.232055 0.0515502 0 1.38807 -0.144203 0
0.230647 0.050135 0.00244367 1.41862 -0.270338 0
0.232055 0.0515502 0.0146 1.38807 -0.144203 0
0.230647 0.050135 0.0121563 1.41862 -0.270338 0
0.279304 0.0510758 0 0.677565 2.3659 0
0.279304 0.0510758 0.00352 0.677565 2.3659 0
0.278384 0.0489241 0.00105842 0.63862 2.33286 0
0.278384 0.0489241 0.0135416 0.63862 2.33286 0
0.279304 0.0510758 0.0146 0.677565 2.3659 0
0.282029 0.0580218 0.0114664 0.774364 2.61269 0
0.282029 0.0580218 0.00313356 0.774364 2.61269 0
0.289751 0.0585001 0.0120136 0.839195 2.62998 0
0.289751 0.0585001 0.00258641 0.839195 2.62998 0
0.292 0.0529831 0 0.330791 1.02033 0
0.292 0.0529831 0.00570201 0.330791 1.02033 0
0.292 0.0529831 0.0146 0.330791 1.02033 0
0.283156 0.0518703 0 0.715963 2.39426 0
0.283156 0.0518703 0.0146 0.715963 2.39426 0
0.20313 0.0699098 0 1.09001 -0.643575 0
0.201649 0.0720335 0.0128962 1.06212 -0.672267 0
0.201649 0.0720335 0.00170377 1.06212 -0.672267 0
0.20313 0.0699098 0.0104667 1.09001 -0.643575 0
0.20313 0.0699098 0.0146 1.09001 -0.643575 0
0.198968 0.0735228 0.0146 1.02686 -0.689587 0
0.198968 0.0735228 0.00981271 1.02686 -0.689587 0
0.198968 0.0735228 0 1.02686 -0.689587 0
0.200533 0.0709119 0 1.06071 -0.660493 0
0.200533 0.0709119 0.0146 1.06071 -0.660493 0
0.215826 0.0610467 0 1.26928 -0.490674 0
0.215826 0.0610467 0.000326935 1.26928 -0.490674 0
0.215403 0.0611858 0.000486144 1.26447 -0.497108 0
0.215403 0.0611858 0.0141139 1.26447 -0.497108 0
0.215826 0.0610467 0.0146 1.26928 -0.490674 0
0.20861 0.0662694 0 1.15614 -0.535466 0
0.207592 0.0652458 0.0073 1.15941 -0.581999 0
0.20861 0.0662694 0.0146 1.15614 -0.535466 0
0.216059 0.0609949 0 1.26762 -0.485234 0
0.215942 0.0608779 0.000133853 1.27284 -0.490596 0
0.216059 0.0609949 0.0146 1.26762 -0.485234 0
0.215942 0.0608779 0.0144661 1.27284 -0.490596 0
0.190435 0.0810965 0 0.888283 -0.771534 0
0.188388 0.0842272 0.0122461 0.844599 -0.802228 0
0.188388 0.0842272 0.00235395 0.844599 -0.802228 0
0.190435 0.0810965 0.0086645 0.888283 -0.771534 0
0.190435 0.0810965 0.0146 0.888283 -0.771534 0
0.185058 0.0862847 0.0146 0.801868 -0.81415 0
0.185058 0.0862847 0.00841683 0.801868 -0.81415 0
0.185058 0.0862847 0 0.801868 -0.81415 0
0.187012 0.0828443 0 0.846223 -0.786431 0
0.187012 0.0828443 0.0146 0.846223 -0.786431 0
0.195042 0.0781545 0 0.934897 -0.702841 0
0.193551 0.0766557 0.00358414 0.950544 -0.729157 0
0.195042 0.0781545 0.0146 0.934897 -0.702841 0
0.193551 0.0766557 0.0110159 0.950544 -0.729157 0
0.177739 0.0933904 0 0.688709 -0.859848 0
0.175584 0.0968798 0.0121211 0.643905 -0.883105 0
0.175584 0.0968798 0.00247894 0.643905 -0.883105 0
0.177739 0.0933904 0.00812911 0.688709 -0.859848 0
0.177739 0.0933904 0.0146 0.688709 -0.859848 0
0.171877 0.0990467 0.0146 0.605967 -0.879382 0
0.171877 0.0990467 0.00785837 0.605967 -0.879382 0
0.171877 0.0990467 0 0.605967 -0.879382 0
0.174114 0.0954023 0 0.648371 -0.862649 0
0.174114 0.0954023 0.0146 0.648371 -0.862649 0
0.182099 0.090667 0 0.721155 -0.815192 0
0.180584 0.0891449 0.00327215 0.739714 -0.835437 0
0.182099 0.090667 0.0146 0.721155 -0.815192 0
0.180584 0.0891449 0.0113279 0.739714 -0.835437 0
0.165043 0.105295 0 0.524676 -0.887859 0
0.162434 0.109186 0.0115996 0.482324 -0.898167 0
0.162434 0.109186 0.00300037 0.482324 -0.898167 0
0.165043 0.105295 0.0071486 0.524676 -0.887859 0
0.165043 0.105295 0.0146 0.524676 -0.887859 0
0.156765 0.111809 0.0146 0.444081 -0.867379 0
0.156765 0.111809 0.00507935 0.444081 -0.867379 0
0.156765 0.111809 0 0.444081 -0.867379 0
0.160836 0.107579 0 0.488829 -0.873408 0
0.160836 0.107579 0.0146 0.488829 -0.873408 0
0.169144 0.103169 0 0.556181 -0.872618 0
0.167616 0.101632 0.00295815 0.558651 -0.881533 0
0.169144 0.103169 0.0146 0.556181 -0.872618 0
0.167616 0.101632 0.0116419 0.558651 -0.881533 0
0.139652 0.121959 0 0.342633 -0.764781 0
0.13843 0.123342 0.0131943 0.332095 -0.759974 0
0.13843 0.123342 0.0014057 0.332095 -0.759974 0
0.139652 0.121959 0.0116125 0.342633 -0.764781 0
0.139652 0.121959 0.0146 0.342633 -0.764781 0
0.134384 0.124571 0.0146 0.313727 -0.738043 0
0.134384 0.124571 0.00854117 0.313727 -0.738043 0
0.134384 0.124571 0 0.313727 -0.738043 0
0.137544 0.122451 0 0.333903 -0.751761 0
0.137544 0.122451 0.0146 0.333903 -0.751761 0
0.152348 0.115184 0 0.41109 -0.849937 0
0.145202 0.120071 0.00699412 0.357351 -0.810888 0
0.152348 0.115184 0.00386144 0.41109 -0.849937 0
0.152348 0.115184 0.0146 0.41109 -0.849937 0
0.146274 0.118465 0 0.375656 -0.812938 0
0.146274 0.118465 0.0146 0.375656 -0.812938 0
0.15491 0.114385 0 0.408702 -0.864477 0
0.153791 0.113259 0.00165974 0.422427 -0.855477 0
0.15491 0.114385 0.0146 0.408702 -0.864477 0
0.153791 0.113259 0.0129403 0.422427 -0.855477 0
0.101565 0.136929 0 0.196462 -0.59821 0
0.101363 0.137129 0.0143675 0.19549 -0.597947 0
0.101363 0.137129 0.000232459 0.19549 -0.597947 0
0.101565 0.136929 0.0141384 0.196462 -0.59821 0
0.101565 0.136929 0.0146 0.196462 -0.59821 0
0.100277 0.137332 0.0146 0.192727 -0.594698 0
0.100277 0.137332 0.0131187 0.192727 -0.594698 0
0.100277 0.137332 0 0.192727 -0.594698 0
0.101207 0.136973 0 0.19556 -0.597107 0
0.101207 0.136973 0.0146 0.19556 -0.597107 0
0.114261 0.132759 0 0.242504 -0.640283 0
0.111785 0.134844 0.011753 0.229769 -0.634169 0
0.111785 0.134844 0.00284705 0.229769 -0.634169 0
0.114261 0.132759 0.00936798 0.242504 -0.640283 0
0.114261 0.132759 0.0146 0.242504 -0.640283 0
0.101872 0.137025 0.0142477 0.196701 -0.599657 0
0.101872 0.137025 0.000352319 0.196701 -0.599657 0
0.110558 0.133611 0 0.232892 -0.626387 0
0.110558 0.133611 0.0146 0.232892 -0.626387 0
0.126957 0.128153 0 0.284338 -0.704017 0
0.126957 0.128153 0.00409817 0.284338 -0.704017 0
0.120837 0.130332 0.00738734 0.248403 -0.669905 0
0.126957 0.128153 0.0146 0.284338 -0.704017 0
0.120336 0.130678 0 0.266112 -0.678441 0
0.120336 0.130678 0.0146 0.266112 -0.678441 0
0.129799 0.127428 0 0.2933 -0.722001 0
0.128741 0.126364 0.00205234 0.284768 -0.70588 0
0.129799 0.127428 0.0146 0.2933 -0.722001 0
0.128741 0.126364 0.0125477 0.284768 -0.70588 0
0.0253913 0.149995 0 0.0422887 -0.468295 0
0.0253354 0.150038 0.0145358 0.0421704 -0.468341 0
0.0253354 0.150038 6.42389e-05 0.0421704 -0.468341 0
0.0253913 0.149995 0.0144868 0.0422887 -0.468295 0
0.0253913 0.149995 0.0146 0.0422887 -0.468295 0
0.0235748 0.150094 0.0146 0.0392668 -0.467502 0
0.0235748 0.150094 0.0125111 0.0392668 -0.467502 0
0.0235748 0.150094 0 0.0392668 -0.467502 0
0.0252954 0.149998 0 0.042115 -0.468248 0
0.0252954 0.149998 0.0146 0.042115 -0.468248 0
0.038087 0.148889 0 0.0646999 -0.47752 0
0.037393 0.149397 0.0138019 0.063071 -0.477798 0
0.037393 0.149397 0.000798061 0.063071 -0.477798 0
0.038087 0.148889 0.013221 0.0646999 -0.47752 0
0.038087 0.148889 0.0146 0.0646999 -0.47752 0
0.0254521 0.150033 0.0145301 0.0423687 -0.468413 0
0.0254521 0.150033 6.99112e-05 0.0423687 -0.468413 0
0.0369413 0.148943 0 0.0625831 -0.476629 0
0.0369413 0.148943 0.0146 0.0625831 -0.476629 0
0.0507826 0.147437 0 0.0888118 -0.491074 0
0.0491901 0.148494 0.0127686 0.0846936 -0.490891 0
0.0491901 0.148494 0.00183144 0.0846936 -0.490891 0
0.0507826 0.147437 0.0115602 0.0888118 -0.491074 0
0.0507826 0.147437 0.0146 0.0888118 -0.491074 0
0.0388908 0.149286 0.0136755 0.0656437 -0.479192 0
0.0388908 0.149286 0.000924469 0.0656437 -0.479192 0
0.0483179 0.147617 0 0.0841967 -0.488341 0
0.0483179 0.147617 0.0146 0.0841967 -0.488341 0
0.0634783 0.145627 0 0.115529 -0.508845 0
0.0606249 0.147226 0.0113186 0.107219 -0.506779 0
0.0606249 0.147226 0.00328138 0.107219 -0.506779 0
0.0634783 0.145627 0.0094895 0.115529 -0.508845 0
0.0634783 0.145627 0.0146 0.115529 -0.508845 0
0.0528072 0.148059 0.0122717 0.0909162 -0.49541 0
0.0528072 0.148059 0.00232831 0.0909162 -0.49541 0
0.0594873 0.146083 0 0.108044 -0.503023 0
0.0594873 0.146083 0.0146 0.108044 -0.503023 0
0.0761739 0.143378 0 0.142979 -0.531823 0
0.069579 0.145338 0.00720527 0.122066 -0.520959 0
0.0761739 0.143378 0.00691644 0.142979 -0.531823 0
0.0761739 0.143378 0.0146 0.142979 -0.531823 0
0.070478 0.144369 0 0.132603 -0.521392 0
0.070478 0.144369 0.0146 0.132603 -0.521392 0
0.0888696 0.140612 0 0.169603 -0.563412 0
0.0888696 0.140612 0.00375213 0.169603 -0.563412 0
0.0830176 0.141105 0.00749008 0.148387 -0.545836 0
0.0888696 0.140612 0.0146 0.169603 -0.563412 0
0.0812416 0.142427 0 0.15623 -0.547152 0
0.0812416 0.142427 0.0146 0.15623 -0.547152 0
0.091647 0.140124 0 0.176538 -0.578364 0
0.0907134 0.139186 0.0021204 0.167472 -0.564712 0
0.091647 0.140124 0.0146 0.176538 -0.578364 0
0.0907134 0.139186 0.0124796 0.167472 -0.564712 0
0.0126957 0.150676 0 0.0214048 -0.463297 0
0.0126957 0.150676 0.00066574 0.0214048 -0.463297 0
0.0123378 0.150454 0.000411532 0.0207656 -0.462155 0
0.0123378 0.150454 0.0141885 0.0207656 -0.462155 0
0.0126957 0.150676 0.0146 0.0214048 -0.463297 0
0.000486973 0.150584 0.01404 0.000836607 -0.0357525 0
0 0.150897 0.0146 0 0 0
0.000486973 0.150584 0.000560019 0.000836607 -0.0357525 0
0 0.150897 0.000918442 0 0 0
0 0.150897 0 0 0 0
0.000791043 0.15089 0 0.00139908 -0.0306595 0
0.000791043 0.15089 0.0146 0.00139908 -0.0306595 0
0.013259 0.150661 0 0.0222086 -0.46361 0
0.0130371 0.150438 0.000392716 0.0218644 -0.462384 0
0.013259 0.150661 0.0146 0.0222086 -0.46361 0
0.0130371 0.150438 0.0142073 0.0218644 -0.462384 0
0.293504 0.047999 0 0 0 0
0.293504 0.047999 0.00365937 0 0 0
0.293009 0.0501457 0.00245591 0.288397 0.888567 0
0.293009 0.0501457 0.0121441 0.288397 0.888567 0
0.293504 0.047999 0.0146 0 0 0
0.293383 0.0509413 0 0.0732724 0.43625 0
0.293383 0.0509413 0.0146 0.0732724 0.43625 0
