# p  POINT_DATA 1369
# x y z  p
0.00634783 0.0592941 0 96837.5
0.00535536 0.0597632 0.0123173 96831.6
0.00535536 0.0597632 0.00228268 96831.6
0.00634783 0.0592941 0.0112439 96837.5
0.00634783 0.0592941 0.0146 96837.5
0.000987881 0.0597679 0.0123279 96831.6
0.000987881 0.0597679 0.00227213 96831.6
0 0.0593039 0.0146 96837.4
0 0.0593039 0.0112663 96837.4
0 0.0593039 0 96837.4
0.00489083 0.0592963 0 96837.5
0.00489083 0.0592963 0.0146 96837.5
0.0126957 0.0592625 0 96837.6
0.0116796 0.0597395 0.0122631 96831.7
0.0116796 0.0597395 0.00233689 96831.7
0.0126957 0.0592625 0.0111715 96837.6
0.0126957 0.0592625 0.0146 96837.6
0.00734837 0.0597551 0.0122987 96831.7
0.00734837 0.0597551 0.00230126 96831.7
0.011211 0.0592685 0 96837.6
0.011211 0.0592685 0.0146 96837.6
0.0190435 0.059219 0 96837.7
0.0179913 0.0597033 0.0121801 96831.6
0.0179913 0.0597033 0.00241994 96831.6
0.0190435 0.059219 0.011072 96837.7
0.0190435 0.059219 0.0146 96837.7
0.0137262 0.059725 0.0122298 96831.6
0.0137262 0.059725 0.00237024 96831.6
0.0175173 0.0592268 0 96837.7
0.0175173 0.0592268 0.0146 96837.7
0.0253913 0.0591732 0 96837.8
0.0243018 0.0596657 0.0120942 96831.5
0.0243018 0.0596657 0.00250575 96831.5
0.0253913 0.0591732 0.0109672 96837.8
0.0253913 0.0591732 0.0146 96837.8
0.0201104 0.0596884 0.0121461 96831.5
0.0201104 0.0596884 0.00245386 96831.5
0.0238202 0.0591816 0 96837.8
0.0238202 0.0591816 0.0146 96837.8
0.0317391 0.0591206 0 96837.8
0.0306068 0.0596227 0.0119957 96831.4
0.0306068 0.0596227 0.00260434 96831.4
0.0317391 0.0591206 0.0108468 96837.8
0.0317391 0.0591206 0.0146 96837.8
0.026498 0.0596484 0.0120546 96831.4
0.026498 0.0596484 0.00254538 96831.4
0.0301173 0.0591306 0 96837.9
0.0301173 0.0591306 0.0146 96837.9
0.038087 0.0590592 0 96837.9
0.0369037 0.0595715 0.0118786 96831.3
0.0369037 0.0595715 0.00272145 96831.3
0.038087 0.0590592 0.0107064 96837.9
0.038087 0.0590592 0.0146 96837.9
0.0328929 0.0596011 0.0119463 96831.3
0.0328929 0.0596011 0.00265366 96831.3
0.0364063 0.0590714 0 96837.9
0.0364063 0.0590714 0.0146 96837.9
0.0444348 0.0589892 0 96837.9
0.043192 0.0595117 0.0117417 96831.1
0.043192 0.0595117 0.00285831 96831.1
0.0444348 0.0589892 0.0105463 96837.9
0.0444348 0.0589892 0.0146 96837.9
0.0392967 0.0595448 0.0118175 96831.2
0.0392967 0.0595448 0.00278246 96831.2
0.0426869 0.0590039 0 96838
0.0426869 0.0590039 0.0146 96838
0.0507826 0.0589112 0 96838
0.0494717 0.0594432 0.011585 96830.9
0.0494717 0.0594432 0.003015 96830.9
0.0507826 0.0589112 0.0103677 96838
0.0507826 0.0589112 0.0146 96838
0.0457097 0.0594793 0.0116677 96831
0.0457097 0.0594793 0.00293234 96831
0.0489598 0.0589285 0 96838.1
0.0489598 0.0589285 0.0146 96838.1
0.0571304 0.0588258 0 96838.1
0.0557427 0.0593659 0.0114082 96830.8
0.0557427 0.0593659 0.00319176 96830.8
0.0571304 0.0588258 0.0101724 96838.1
0.0571304 0.0588258 0.0146 96838.1
0.0521321 0.0594044 0.0114962 96830.8
0.0521321 0.0594044 0.00310376 96830.8
0.0552254 0.0588459 0 96838.2
0.0552254 0.0588459 0.0146 96838.2
0.0634783 0.0587341 0 96838.1
0.0620051 0.0592801 0.0112118 96830.6
0.0620051 0.0592801 0.00338816 96830.6
0.0634783 0.0587341 0.00996266 96838.1
0.0634783 0.0587341 0.0146 96838.1
0.0585638 0.05932 0.0113033 96830.6
0.0585638 0.05932 0.00329673 96830.6
0.0614849 0.0587571 0 96838.2
0.0614849 0.0587571 0.0146 96838.2
0.0698261 0.0586374 0 96838.2
0.0682594 0.059186 0.0109966 96830.4
0.0682594 0.059186 0.00360341 96830.4
0.0698261 0.0586374 0.00974129 96838.2
0.0698261 0.0586374 0.0146 96838.2
0.0650046 0.0592265 0.0110893 96830.4
0.0650046 0.0592265 0.00351068 96830.4
0.0677393 0.0586632 0 96838.3
0.0677393 0.0586632 0.0146 96838.3
0.0761739 0.0585365 0 96838.2
0.0729801 0.0591044 0.00728471 96830.2
0.0761739 0.0585365 0.00951041 96838.2
0.0761739 0.0585365 0.0146 96838.2
0.0739899 0.0585655 0 96838.4
0.0739899 0.0585655 0.0146 96838.4
0.0825217 0.0584296 0 96838.4
0.0793287 0.0589924 0.00728536 96830
0.0825217 0.0584296 0.00926596 96838.4
0.0825217 0.0584296 0.0146 96838.4
0.0802382 0.0584654 0 96838.5
0.0802382 0.0584654 0.0146 96838.5
0.0888696 0.0583195 0 96838.6
0.085678 0.0588548 0.0072865 96830
0.0888696 0.0583195 0.00901401 96838.6
0.0888696 0.0583195 0.0146 96838.6
0.0864821 0.0583609 0 96838.6
0.0864821 0.0583609 0.0146 96838.6
0.0952174 0.0582124 0 96838.7
0.0920278 0.0587116 0.007288 96829.9
0.0952174 0.0582124 0.00876893 96838.7
0.0952174 0.0582124 0.0146 96838.7
0.092724 0.0582545 0 96838.8
0.092724 0.0582545 0.0146 96838.8
0.101565 0.0581116 0 96838.9
0.0983781 0.0585663 0.00728987 96829.9
0.101565 0.0581116 0.00853831 96838.9
0.101565 0.0581116 0.0146 96838.9
0.0989707 0.0581528 0 96838.9
0.0989707 0.0581528 0.0146 96838.9
0.107913 0.0580213 0 96839
0.104729 0.0584253 0.00729202 96829.8
0.107913 0.0580213 0.00833176 96839
0.107913 0.0580213 0.0146 96839
0.105226 0.0580597 0 96839
0.105226 0.0580597 0.0146 96839
0.114261 0.057946 0 96839.1
0.111079 0.0582971 0.00729423 96829.8
0.114261 0.057946 0.00815941 96839.1
0.114261 0.057946 0.0146 96839.1
0.111494 0.0579791 0 96839.1
0.111494 0.0579791 0.0146 96839.1
0.120609 0.0578902 0 96839.2
0.11743 0.0581912 0.00729629 96829.7
0.120609 0.0578902 0.00803172 96839.2
0.120609 0.0578902 0.0146 96839.2
0.117778 0.0579153 0 96839.2
0.117778 0.0579153 0.0146 96839.2
0.126957 0.0578591 0 96839.3
0.12378 0.0581178 0.00729815 96829.7
0.126957 0.0578591 0.00796054 96839.3
0.126957 0.0578591 0.0146 96839.3
0.124084 0.0578733 0 96839.2
0.124084 0.0578733 0.0146 96839.2
0.133304 0.0578618 0 96839.5
0.130131 0.0580895 0.00730016 96829.7
0.133304 0.0578618 0.00796681 96839.5
0.133304 0.0578618 0.0146 96839.5
0.130419 0.0578606 0 96839.3
0.130419 0.0578606 0.0146 96839.3
0.139652 0.0579043 0 96839.6
0.136482 0.0581274 0.00730256 96829.7
0.139652 0.0579043 0.00806392 96839.6
0.139652 0.0579043 0.0146 96839.6
0.136791 0.0578849 0 96839.4
0.136791 0.0578849 0.0146 96839.4
0.146 0.0579941 0 96839.7
0.142834 0.0582293 0.00730633 96829.6
0.146 0.0579941 0.00826951 96839.7
0.146 0.0579941 0.0146 96839.7
0.143208 0.0579543 0 96839.4
0.143208 0.0579543 0.0146 96839.4
0.152348 0.0581444 0 96839.7
0.149191 0.0584131 0.00731317 96829.6
0.152348 0.0581444 0.00861343 96839.7
0.152348 0.0581444 0.0146 96839.7
0.149682 0.0580811 0 96839.3
0.149682 0.0580811 0.0146 96839.3
0.158696 0.0583638 0 96839.6
0.155553 0.0586779 0.00732414 96829.6
0.158696 0.0583638 0.00911539 96839.6
0.158696 0.0583638 0.0146 96839.6
0.156226 0.0582785 0 96839.2
0.156226 0.0582785 0.0146 96839.2
0.165043 0.0586518 0 96839.4
0.161922 0.0590098 0.00734045 96829.8
0.165043 0.0586518 0.00977426 96839.4
0.165043 0.0586518 0.0146 96839.4
0.162855 0.0585612 0 96838.9
0.162855 0.0585612 0.0146 96838.9
0.171391 0.0590266 0 96839.3
0.170069 0.059432 0.0115595 96830.7
0.170069 0.059432 0.0030405 96830.7
0.171391 0.0590266 0.0106319 96839.3
0.171391 0.0590266 0.0146 96839.3
0.166531 0.0592653 0.0111781 96830.4
0.166531 0.0592653 0.00342192 96830.4
0.16958 0.0589397 0 96838.7
0.16958 0.0589397 0.0146 96838.7
0.177739 0.0595203 0 96838.8
0.176849 0.0598657 0.0125518 96832.1
0.176849 0.0598657 0.00204825 96832.1
0.177739 0.0595203 0.0117616 96838.8
0.177739 0.0595203 0.0146 96838.8
0.172529 0.0596169 0.0119826 96831.4
0.172529 0.0596169 0.00261744 96831.4
0.176428 0.0594425 0 96838.2
0.176428 0.0594425 0.0146 96838.2
0.184087 0.0601523 0 96837.6
0.183681 0.0603526 0.0136659 96834
0.183681 0.0603526 0.000934139 96834
0.184087 0.0601523 0.0132074 96837.6
0.184087 0.0601523 0.0146 96837.6
0.178491 0.0600052 0.012871 96832.7
0.178491 0.0600052 0.00172897 96832.7
0.183437 0.0601073 0 96837.2
0.183437 0.0601073 0.0146 96837.2
0.184428 0.060418 0.0138154 96834.5
0.184428 0.060418 0.000784594 96834.5
0.188748 0.0607609 0.0146 96835.9
0.188748 0.0607609 0.0107206 96835.9
0.188748 0.0607609 0 96835.9
0.190435 0.060986 0 96836.4
0.190435 0.060986 0.000514979 96836.4
0.190313 0.060883 0.000279337 96836.4
0.190313 0.060883 0.0143207 96836.4
0.190435 0.060986 0.0146 96836.4
0.196783 0.0619322 0 96838.8
0.196783 0.0619322 0.00268005 96838.8
0.19612 0.0614269 0.00152398 96838.5
0.19612 0.0614269 0.013076 96838.5
0.196783 0.0619322 0.0146 96838.8
0.19068 0.0610073 0 96836.4
0.190578 0.0609045 0.0003286 96836.3
0.190578 0.0609045 0.0142714 96836.3
0.19068 0.0610073 0.0146 96836.4
0.20313 0.0629364 0 96841.4
0.20313 0.0629364 0.00497766 96841.4
0.201823 0.0620753 0.00300737 96840
0.201823 0.0620753 0.0115926 96840
0.20313 0.0629364 0.0146 96841.4
0.198132 0.0621169 0 96838.4
0.197632 0.0616148 0.00195389 96837.8
0.197632 0.0616148 0.0126461 96837.8
0.198132 0.0621169 0.0146 96838.4
0.209478 0.0643074 0 96842.6
0.209478 0.0643074 0.00811462 96842.6
0.20616 0.0631085 0.00718949 96835.4
0.209478 0.0643074 0.0146 96842.6
0.205915 0.0635598 0 96840
0.205915 0.0635598 0.0146 96840
0.215826 0.0664371 0 96838.1
0.215088 0.0664004 0.0129035 96833.7
0.215088 0.0664004 0.00169654 96833.7
0.215826 0.0664371 0.0129874 96838.1
0.215826 0.0664371 0.0146 96838.1
0.211278 0.0653329 0.0073 96832.1
0.214836 0.0661466 0 96837.6
0.214836 0.0661466 0.0146 96837.6
0.216142 0.0668245 0.013874 96834.8
0.216142 0.0668245 0.000726026 96834.8
0.217769 0.0671419 0.0146 96836.2
0.217769 0.0671419 0.00446788 96836.2
0.217769 0.0671419 0 96836.2
0.222174 0.0686321 0 96838.6
0.222174 0.0686321 0.00340975 96838.6
0.221408 0.0679115 0.00176098 96838.5
0.221408 0.0679115 0.012839 96838.5
0.222174 0.0686321 0.0146 96838.6
0.228522 0.0706148 0 96840.7
0.228522 0.0706148 0.00794622 96840.7
0.226443 0.0692316 0.0073 96837.5
0.228522 0.0706148 0.0146 96840.7
0.224327 0.0693062 0 96837.5
0.2236 0.0685754 0.00328007 96835.9
0.2236 0.0685754 0.0113199 96835.9
0.224327 0.0693062 0.0146 96837.5
0.23487 0.0734947 0 96834.1
0.23484 0.0734934 0.0145328 96833.9
0.23484 0.0734934 6.72442e-05 96833.9
0.23487 0.0734947 0.0145356 96834.1
0.23487 0.0734947 0.0146 96834.1
0.230182 0.0718537 0.0073 96831.2
0.234825 0.0734779 0 96834.1
0.234825 0.0734779 0.0146 96834.1
0.234881 0.0735108 0.0145726 96834
0.234881 0.0735108 2.74255e-05 96834
0.234924 0.0735228 0.0146 96834
0.234924 0.0735228 0.000124712 96834
0.234924 0.0735228 0 96834
0.241217 0.0763689 0 96837.1
0.241217 0.0763689 0.00651204 96837.1
0.239759 0.0749885 0.00335367 96836.8
0.239759 0.0749885 0.0112463 96836.8
0.241217 0.0763689 0.0146 96837.1
0.247565 0.0796345 0 96832.3
0.247187 0.0795236 0.0137301 96831
0.247187 0.0795236 0.000869867 96831
0.247565 0.0796345 0.0139839 96832.3
0.247565 0.0796345 0.0146 96832.3
0.243349 0.0777612 0.0073 96829.5
0.247083 0.0794192 0 96832.1
0.247083 0.0794192 0.0146 96832.1
0.247675 0.079793 0.0143465 96831.4
0.247675 0.079793 0.000253459 96831.4
0.24801 0.0799038 0.0146 96831.7
0.24801 0.0799038 0.00102205 96831.7
0.24801 0.0799038 0 96831.7
0.253913 0.0830414 0 96833
0.253913 0.0830414 0.00717907 96833
0.252337 0.0814882 0.00362515 96833.1
0.252337 0.0814882 0.0109748 96833.1
0.253913 0.0830414 0.0146 96833
0.255675 0.0845136 0.0073 96827.5
0.260002 0.0862847 0.0146 96828.7
0.260002 0.0862847 0.0140057 96828.7
0.260002 0.0862847 0 96828.7
0.260261 0.0864423 0 96828.7
0.260261 0.0864423 0.000360464 96828.7
0.260188 0.0863584 0.000168479 96828.7
0.260188 0.0863584 0.0144315 96828.7
0.260261 0.0864423 0.0146 96828.7
0.266609 0.0896228 0 96829.6
0.266609 0.0896228 0.00763769 96829.6
0.264883 0.0880196 0.0073 96829.9
0.266609 0.0896228 0.0146 96829.6
0.260537 0.086562 0 96828.7
0.26041 0.0864348 0.000343285 96828.7
0.26041 0.0864348 0.0142567 96828.7
0.260537 0.086562 0.0146 96828.7
0.268216 0.0910497 0.0073 96825.8
0.272605 0.0926657 0.0146 96826.2
0.272605 0.0926657 0.0137908 96826.2
0.272605 0.0926657 0 96826.2
0.272957 0.092866 0 96826.2
0.272957 0.092866 0.000458376 96826.2
0.272861 0.0927619 0.000220175 96826.2
0.272861 0.0927619 0.0143798 96826.2
0.272957 0.092866 0.0146 96826.2
0.279304 0.095494 0 96827
0.279304 0.095494 0.00647136 96827
0.277777 0.0942007 0.00351212 96827.3
0.277777 0.0942007 0.0110879 96827.3
0.279304 0.095494 0.0146 96827
0.273255 0.0929661 0 96826.2
0.273129 0.0928393 0.000397094 96826.2
0.273129 0.0928393 0.0142029 96826.2
0.273255 0.0929661 0.0146 96826.2
0.285652 0.0982494 0 96825.4
0.284563 0.0979519 0.0120952 96825
0.284563 0.0979519 0.00250481 96825
0.285652 0.0982494 0.0127757 96825.4
0.285652 0.0982494 0.0146 96825.4
0.28158 0.0967589 0.0073 96825.6
0.284347 0.0977345 0 96825.5
0.284347 0.0977345 0.0146 96825.5
0.28599 0.0987071 0.013823 96824.5
0.28599 0.0987071 0.000777019 96824.5
0.287778 0.0990467 0.0146 96824.4
0.287778 0.0990467 0.0048884 96824.4
0.287778 0.0990467 0 96824.4
0.292 0.100497 0 96824.1
0.292 0.100497 0.00331851 96824.1
0.291211 0.0998399 0.00181487 96824.2
0.291211 0.0998399 0.0127851 96824.2
0.292 0.100497 0.0146 96824.1
0.304 0.0495139 0 96830.8
0.303773 0.0484815 0.001104 96832.1
0.304 0.0495139 0.00346631 96830.8
0.303773 0.0484815 0.013496 96832.1
0.304 0.0495139 0.0146 96830.8
0.303617 0.047999 0 96834.1
0.303617 0.047999 0.0127372 96834.1
0.303617 0.047999 0.0146 96834.1
0.304445 0.0534332 0.0124338 96820
0.306332 0.0543799 0.0146 96812.1
0.304445 0.0534332 0.00216618 96820
0.306332 0.0543799 0.0113485 96812.1
0.306332 0.0543799 0 96812.1
0.307 0.0551189 0 96810.7
0.306824 0.0547526 0.000852642 96809.2
0.307 0.0551189 0.00169086 96810.7
0.306824 0.0547526 0.0137474 96809.2
0.307 0.0551189 0.0146 96810.7
0.31 0.0559646 0 96810.7
0.309574 0.0552861 0.00207345 96804.9
0.31 0.0559646 0.00362577 96810.7
0.309574 0.0552861 0.0125266 96804.9
0.31 0.0559646 0.0146 96810.7
0.307232 0.0548743 0.00113114 96807.4
0.307397 0.0552253 0 96810.6
0.307232 0.0548743 0.0134689 96807.4
0.307397 0.0552253 0.0146 96810.6
0.313 0.0563301 0 96815.5
0.312325 0.0558151 0.00328385 96808.8
0.313 0.0563301 0.0044622 96815.5
0.312325 0.0558151 0.0113161 96808.8
0.313 0.0563301 0.0146 96815.5
0.310603 0.0556629 0.00293548 96806.4
0.310797 0.0560761 0 96811.8
0.310603 0.0556629 0.0116645 96806.4
0.310797 0.0560761 0.0146 96811.8
0.315999 0.0576943 0 96819.4
0.315123 0.0562444 0.0073 96814.7
0.315999 0.0576943 0.00758346 96819.4
0.315999 0.0576943 0.0146 96819.4
0.313681 0.0558285 0.00331448 96813.2
0.314169 0.0568683 0 96816.5
0.313681 0.0558285 0.0112855 96813.2
0.314169 0.0568683 0.0146 96816.5
0.295 0.101381 0 96823.8
0.295 0.101381 0.00534131 96823.8
0.294266 0.100607 0.00356987 96824.5
0.294266 0.100607 0.0110301 96824.5
0.295 0.101381 0.0146 96823.8
0.292785 0.100715 0 96824.3
0.292555 0.100227 0.00270144 96824.7
0.292555 0.100227 0.0118986 96824.7
0.292785 0.100715 0.0146 96824.3
0.298 0.102005 0 96823.5
0.298 0.102005 0.00676885 96823.5
0.296465 0.10136 0.00724347 96825.4
0.298 0.102005 0.0146 96823.5
0.296219 0.101639 0 96823.8
0.296219 0.101639 0.0146 96823.8
0.301 0.102727 0 96823.5
0.299501 0.102255 0.0073017 96825.9
0.301 0.102727 0.00842188 96823.5
0.301 0.102727 0.0146 96823.5
0.299576 0.102399 0 96823.5
0.299576 0.102399 0.0146 96823.5
0.304 0.104049 0 96824.3
0.303349 0.104043 0.011431 96825.5
0.303349 0.104043 0.00316905 96825.5
0.304 0.104049 0.0114461 96824.3
0.304 0.104049 0.0146 96824.3
0.301907 0.103498 0.0073 96825.7
0.303193 0.103713 0 96824.1
0.303193 0.103713 0.0146 96824.1
0.307 0.105398 0 96825.4
0.306991 0.10541 0.0145587 96825.4
0.306991 0.10541 4.12638e-05 96825.4
0.307 0.105398 0.0145329 96825.4
0.307 0.105398 0.0146 96825.4
0.304323 0.104741 0.0130291 96825.3
0.304323 0.104741 0.00157091 96825.3
0.306983 0.105391 0 96825.4
0.306983 0.105391 0.0146 96825.4
0.307006 0.105414 0.0145682 96825.4
0.307006 0.105414 3.17504e-05 96825.4
0.307142 0.105428 0.0146 96825.4
0.307142 0.105428 0.000690778 96825.4
0.307142 0.105428 0 96825.4
0.31 0.105987 0 96825.1
0.31 0.105987 0.00127907 96825.1
0.309861 0.105722 0.00067379 96825.1
0.309861 0.105722 0.0139262 96825.1
0.31 0.105987 0.0146 96825.1
0.313 0.106259 0 96824.2
0.313 0.106259 0.00190267 96824.2
0.312785 0.105884 0.00104375 96824.2
0.312785 0.105884 0.0135563 96824.2
0.313 0.106259 0.0146 96824.2
0.310274 0.106012 0 96825.1
0.310151 0.10575 0.000736763 96825.1
0.310151 0.10575 0.0138632 96825.1
0.310274 0.106012 0.0146 96825.1
0.315999 0.106579 0 96822.6
0.315999 0.106579 0.00263447 96822.6
0.315689 0.106088 0.00150992 96822.7
0.315689 0.106088 0.0130901 96822.7
0.315999 0.106579 0.0146 96822.6
0.313413 0.106307 0 96824.2
0.313238 0.105936 0.00116232 96824.2
0.313238 0.105936 0.0134377 96824.2
0.313413 0.106307 0.0146 96824.2
0.323052 0.0599101 0 96818.4
0.322291 0.0600727 0.0015747 96817.9
0.322291 0.0600727 0.0130253 96817.9
0.323052 0.0599101 0.0126533 96818.4
0.323052 0.0599101 0.0146 96818.4
0.317755 0.0591723 0.0109653 96818.9
0.317755 0.0591723 0.00363475 96818.9
0.321612 0.0594578 0 96818.1
0.321612 0.0594578 0.0146 96818.1
0.323492 0.0603625 0.0136884 96818.4
0.327418 0.0607609 0.0146 96816.8
0.323492 0.0603625 0.000911616 96818.4
0.327418 0.0607609 0.00903825 96816.8
0.327418 0.0607609 0 96816.8
0.330105 0.0612889 0 96816.5
0.32983 0.0610097 0.000569202 96815.7
0.330105 0.0612889 0.00120818 96816.5
0.32983 0.0610097 0.0140308 96815.7
0.330105 0.0612889 0.0146 96816.5
0.337157 0.0631588 0 96818
0.33582 0.061971 0.00276884 96814.7
0.337157 0.0631588 0.00548646 96818
0.33582 0.061971 0.0118312 96814.7
0.337157 0.0631588 0.0146 96818
0.330515 0.0611317 0.000848397 96815.5
0.330914 0.0614928 0 96816.5
0.330515 0.0611317 0.0137516 96815.5
0.330914 0.0614928 0.0146 96816.5
0.34421 0.0649731 0 96818.7
0.341686 0.0648579 0.00522592 96815.4
0.341686 0.0648579 0.00937408 96815.4
0.34421 0.0649731 0.00963774 96818.7
0.34421 0.0649731 0.0146 96818.7
0.340053 0.0645224 0.00860658 96815
0.340053 0.0645224 0.00599342 96815
0.340845 0.0640975 0 96817.9
0.340845 0.0640975 0.0146 96817.9
0.351263 0.0659881 0 96818.2
0.350342 0.0663093 0.001905 96817.7
0.350342 0.0663093 0.012695 96817.7
0.351263 0.0659881 0.0119601 96818.2
0.351263 0.0659881 0.0146 96818.2
0.345627 0.0658598 0.0116666 96818.1
0.345627 0.0658598 0.00293338 96818.1
0.349761 0.0657828 0 96818
0.349761 0.0657828 0.0146 96818
0.351955 0.0665154 0.0131667 96818.1
0.3574 0.0671419 0.0146 96817.2
0.351955 0.0665154 0.00143325 96818.1
0.3574 0.0671419 0.0127047 96817.2
0.3574 0.0671419 0 96817.2
0.358315 0.0673288 0 96817.2
0.358219 0.0672288 0.000198877 96817
0.358315 0.0673288 0.000427638 96817.2
0.358219 0.0672288 0.0144011 96817
0.358315 0.0673288 0.0146 96817.2
0.365368 0.0690028 0 96817.5
0.364211 0.0681887 0.00239517 96815.6
0.365368 0.0690028 0.00425801 96817.5
0.364211 0.0681887 0.0122048 96815.6
0.365368 0.0690028 0.0146 96817.5
0.35847 0.0672818 0.000320126 96816.9
0.358578 0.0673794 0 96817.1
0.35847 0.0672818 0.0142799 96816.9
0.358578 0.0673794 0.0146 96817.1
0.372421 0.0702686 0 96817.6
0.369827 0.0694886 0.00536942 96814.3
0.372421 0.0702686 0.00715426 96817.6
0.369827 0.0694886 0.00923058 96814.3
0.372421 0.0702686 0.0146 96817.6
0.367547 0.0691132 0.0045106 96814.6
0.367896 0.0694289 0 96817.2
0.367547 0.0691132 0.0100894 96814.6
0.367896 0.0694289 0.0146 96817.2
0.379473 0.0714176 0 96817.7
0.37702 0.0713028 0.00507963 96815.3
0.37702 0.0713028 0.00952037 96815.3
0.379473 0.0714176 0.00978319 96817.7
0.379473 0.0714176 0.0146 96817.7
0.375168 0.071037 0.00891242 96815.2
0.375168 0.071037 0.00568758 96815.2
0.376631 0.0709514 0 96817.4
0.376631 0.0709514 0.0146 96817.4
0.386526 0.0728788 0 96817.4
0.385995 0.0730427 0.00109858 96817.2
0.385995 0.0730427 0.0135014 96817.2
0.386526 0.0728788 0.0131265 96817.4
0.386526 0.0728788 0.0146 96817.4
0.380822 0.0723029 0.0118087 96817.3
0.380822 0.0723029 0.00279135 96817.3
0.385655 0.0727349 0 96817.3
0.385655 0.0727349 0.0146 96817.3
0.386887 0.0731962 0.0138527 96817.4
0.388741 0.0735228 0.0146 96817.2
0.386887 0.0731962 0.000747273 96817.4
0.388741 0.0735228 0.00458644 96817.2
0.388741 0.0735228 0 96817.2
0.393579 0.0749036 0 96817.3
0.392813 0.0742156 0.00158504 96816.7
0.393579 0.0749036 0.00315923 96817.3
0.392813 0.0742156 0.013015 96816.7
0.393579 0.0749036 0.0146 96817.3
0.400631 0.0769643 0 96817.4
0.398191 0.0757303 0.0073 96815.4
0.400631 0.0769643 0.0078742 96817.4
0.400631 0.0769643 0.0146 96817.4
0.395211 0.0749995 0.00337869 96815.8
0.395765 0.0755008 0 96817.1
0.395211 0.0749995 0.0112213 96815.8
0.395765 0.0755008 0.0146 96817.1
0.407684 0.079266 0 96818.1
0.407036 0.0793179 0.00134055 96817.6
0.407036 0.0793179 0.0132594 96817.6
0.407684 0.079266 0.0131408 96818.1
0.407684 0.079266 0.0146 96818.1
0.402499 0.0782135 0.0073 96816.5
0.406656 0.0789742 0 96817.9
0.406656 0.0789742 0.0146 96817.9
0.408013 0.0796058 0.0139183 96818.2
0.409074 0.0799038 0.0146 96818
0.408013 0.0796058 0.000681744 96818.2
0.409074 0.0799038 0.00287831 96818
0.409074 0.0799038 0 96818
0.414737 0.0823488 0 96817.9
0.413465 0.0810545 0.00263293 96817.8
0.414737 0.0823488 0.00559444 96817.9
0.413465 0.0810545 0.0119671 96817.8
0.414737 0.0823488 0.0146 96817.9
0.421789 0.0856234 0 96818.1
0.420872 0.0854553 0.00189792 96817.2
0.420872 0.0854553 0.0127021 96817.2
0.421789 0.0856234 0.0130868 96818.1
0.421789 0.0856234 0.0146 96818.1
0.41719 0.0840648 0.0073 96815.6
0.420391 0.0850198 0 96818.1
0.420391 0.0850198 0.0146 96818.1
0.422109 0.0859954 0.013938 96818.3
0.422865 0.0862847 0.0146 96818.3
0.422109 0.0859954 0.000661982 96818.3
0.422865 0.0862847 0.00222657 96818.3
0.422865 0.0862847 0 96818.3
0.428842 0.0897324 0 96819.7
0.427148 0.087817 0.00350591 96819.2
0.428842 0.0897324 0.0078884 96819.7
0.427148 0.087817 0.0110941 96819.2
0.428842 0.0897324 0.0146 96819.7
0.430222 0.0914173 0.0117436 96819.7
0.432881 0.0926657 0.0146 96819.7
0.430222 0.0914173 0.00285641 96819.7
0.432881 0.0926657 0.00836208 96819.7
0.432881 0.0926657 0 96819.7
0.435894 0.0949793 0 96819.6
0.434932 0.0935366 0.00199267 96819.7
0.435894 0.0949793 0.00529354 96819.6
0.434932 0.0935366 0.0126073 96819.7
0.435894 0.0949793 0.0146 96819.6
0.437798 0.0973246 0.0073 96819.5
0.440647 0.0990467 0.0146 96819.2
0.440647 0.0990467 0.00983858 96819.2
0.440647 0.0990467 0 96819.2
0.442947 0.101172 0 96818.7
0.442123 0.0997925 0.00170642 96819
0.442947 0.101172 0.00486309 96818.7
0.442123 0.0997925 0.0128936 96819
0.442947 0.101172 0.0146 96818.7
0.444758 0.103789 0.0073 96818.4
0.447268 0.105428 0.0146 96817.9
0.447268 0.105428 0.00894579 96817.9
0.447268 0.105428 0 96817.9
0.323052 0.10746 0 96821.3
0.323052 0.10746 0.00464932 96821.3
0.321776 0.106582 0.00264196 96821.6
0.321776 0.106582 0.011958 96821.6
0.323052 0.10746 0.0146 96821.3
0.317477 0.106764 0 96822.7
0.316858 0.106204 0.00177631 96822.8
0.316858 0.106204 0.0128237 96822.8
0.317477 0.106764 0.0146 96822.7
0.330105 0.108773 0 96821.7
0.330105 0.108773 0.00765486 96821.7
0.326408 0.107784 0.00718213 96824.4
0.330105 0.108773 0.0146 96821.7
0.325868 0.107975 0 96822
0.325868 0.107975 0.0146 96822
0.337157 0.109374 0 96821.6
0.33372 0.109785 0.00736123 96827
0.337157 0.109374 0.00902907 96821.6
0.337157 0.109374 0.0146 96821.6
0.334181 0.109116 0 96822.2
0.334181 0.109116 0.0146 96822.2
0.34421 0.109363 0 96820.6
0.340682 0.109812 0.00729872 96826.5
0.34421 0.109363 0.00900399 96820.6
0.34421 0.109363 0.0146 96820.6
0.341512 0.109367 0 96821.4
0.341512 0.109367 0.0146 96821.4
0.351263 0.109741 0 96819.9
0.34781 0.109907 0.0073509 96825.8
0.351263 0.109741 0.00986906 96819.9
0.351263 0.109741 0.0146 96819.9
0.348843 0.109619 0 96820.2
0.348843 0.109619 0.0146 96820.2
0.358315 0.110589 0 96818.8
0.357296 0.110887 0.0124906 96821.3
0.357296 0.110887 0.00210938 96821.3
0.358315 0.110589 0.0118089 96818.8
0.358315 0.110589 0.0146 96818.8
0.352734 0.110477 0.0115536 96823
0.352734 0.110477 0.00304639 96823
0.356807 0.110444 0 96819.1
0.356807 0.110444 0.0146 96819.1
0.365368 0.111203 0 96817.7
0.364948 0.111429 0.0137312 96818.5
0.364948 0.111429 0.000868773 96818.5
0.365368 0.111203 0.013215 96817.7
0.365368 0.111203 0.0146 96817.7
0.359095 0.111103 0.0129853 96819.9
0.359095 0.111103 0.00161475 96819.9
0.364655 0.111164 0 96817.9
0.364655 0.111164 0.0146 96817.9
0.372421 0.111376 0 96816.3
0.372126 0.111542 0.0139909 96816.8
0.372126 0.111542 0.000609137 96816.8
0.372421 0.111376 0.0136108 96816.3
0.372421 0.111376 0.0146 96816.3
0.365771 0.111444 0.0137663 96818.1
0.365771 0.111444 0.000833688 96818.1
0.371935 0.111369 0 96816.5
0.371935 0.111369 0.0146 96816.5
0.379473 0.111804 0 96814.8
0.37947 0.111806 0.0145933 96814.9
0.37947 0.111806 6.72012e-06 96814.9
0.379473 0.111804 0.0145892 96814.8
0.379473 0.111804 0.0146 96814.8
0.372703 0.111553 0.0140149 96816.5
0.372703 0.111553 0.000585132 96816.5
0.379468 0.111804 0 96814.9
0.379468 0.111804 0.0146 96814.9
0.379476 0.111806 0.0145942 96814.9
0.379476 0.111806 5.84634e-06 96814.9
0.379502 0.111809 0.0146 96814.8
0.379502 0.111809 5.95062e-05 96814.8
0.379502 0.111809 0 96814.8
0.45 0.108264 0 96817.4
0.448956 0.106372 0.00216105 96817.4
0.45 0.108264 0.0064897 96817.4
0.448956 0.106372 0.0124389 96817.4
0.45 0.108264 0.0146 96817.4
0.451348 0.110589 0.0118092 96817.3
0.453311 0.111809 0.0146 96817.1
0.451348 0.110589 0.00279082 96817.3
0.453311 0.111809 0.00685407 96817.1
0.453311 0.111809 0 96817.1
0.386526 0.112887 0 96813.8
0.386526 0.112887 0.00246652 96813.8
0.385882 0.112391 0.00133277 96814
0.385882 0.112391 0.0132672 96814
0.386526 0.112887 0.0146 96813.8
0.393579 0.114389 0 96815.8
0.393579 0.114389 0.00590322 96815.8
0.391842 0.11338 0.00359553 96817.3
0.391842 0.11338 0.0110045 96817.3
0.393579 0.114389 0.0146 96815.8
0.388025 0.113165 0 96814.5
0.387508 0.112697 0.00203335 96815.4
0.387508 0.112697 0.0125667 96815.4
0.388025 0.113165 0.0146 96814.5
0.400631 0.116052 0 96816.2
0.397211 0.115396 0.00737339 96825.7
0.400631 0.116052 0.00970954 96816.2
0.400631 0.116052 0.0146 96816.2
0.397415 0.11528 0 96816.2
0.397415 0.11528 0.0146 96816.2
0.407684 0.118174 0 96813.9
0.407671 0.118178 0.014574 96814
0.407671 0.118178 2.60297e-05 96814
0.407684 0.118174 0.0145648 96813.9
0.407684 0.118174 0.0146 96813.9
0.401901 0.117041 0.0119722 96818.4
0.401901 0.117041 0.00262778 96818.4
0.407661 0.118169 0 96814
0.407661 0.118169 0.0146 96814
0.407692 0.118182 0.0145834 96813.9
0.407692 0.118182 1.66445e-05 96813.9
0.407718 0.11819 0.0146 96814
0.407718 0.11819 7.03145e-05 96814
0.407718 0.11819 0 96814
0.457052 0.116196 0 96818.6
0.455493 0.11322 0.00322911 96816.7
0.457052 0.116196 0.0100379 96818.6
0.455493 0.11322 0.0113709 96816.7
0.457052 0.116196 0.0146 96818.6
0.457761 0.117548 0.0131325 96818.9
0.458806 0.11819 0.0146 96819.1
0.457761 0.117548 0.00146753 96818.9
0.458806 0.11819 0.00362949 96819.1
0.458806 0.11819 0 96819.1
0.414737 0.121043 0 96814.8
0.414737 0.121043 0.00652942 96814.8
0.413156 0.11962 0.00327196 96815.4
0.413156 0.11962 0.011328 96815.4
0.414737 0.121043 0.0146 96814.8
0.421789 0.124192 0 96814.6
0.421351 0.124174 0.0136925 96816.3
0.421351 0.124174 0.000907481 96816.3
0.421789 0.124192 0.0137343 96814.6
0.421789 0.124192 0.0146 96814.6
0.416838 0.122669 0.0073 96822
0.421039 0.123892 0 96814.8
0.421039 0.123892 0.0146 96814.8
0.421973 0.124404 0.014219 96814.5
0.421973 0.124404 0.000381007 96814.5
0.422418 0.124571 0.0146 96814.4
0.422418 0.124571 0.00130197 96814.4
0.422418 0.124571 0 96814.4
0.462978 0.12355 0.00233414 96820.9
0.461276 0.120749 0.0073 96822
0.462978 0.12355 0.0122659 96820.9
0.463466 0.124571 0.0146 96820.1
0.463466 0.124571 0.013277 96820.1
0.463466 0.124571 0 96820.1
0.462275 0.122915 0 96819.9
0.462275 0.122915 0.0146 96819.9
0.428842 0.128109 0 96810.8
0.428842 0.128109 0.00809629 96810.8
0.427067 0.126177 0.0073 96813
0.428842 0.128109 0.0146 96810.8
0.430166 0.129753 0.0118584 96811.8
0.430166 0.129753 0.00274165 96811.8
0.432977 0.130952 0.0146 96810.5
0.432977 0.130952 0.00856074 96810.5
0.432977 0.130952 0 96810.5
0.464105 0.125401 0 96820.1
0.463845 0.124805 0.00053728 96820.2
0.464105 0.125401 0.00190119 96820.1
0.463845 0.124805 0.0140627 96820.2
0.464105 0.125401 0.0146 96820.1
0.465943 0.129289 0.0073 96819.7
0.467913 0.130952 0.0146 96819.5
0.467913 0.130952 0.00788271 96819.5
0.467913 0.130952 0 96819.5
0.435894 0.13305 0 96809.9
0.435894 0.13305 0.00480063 96809.9
0.435009 0.131753 0.00183356 96809.7
0.435009 0.131753 0.0127664 96809.7
0.435894 0.13305 0.0146 96809.9
0.438036 0.135395 0.0073 96812
0.44125 0.137332 0.0146 96809.9
0.44125 0.137332 0.011087 96809.9
0.44125 0.137332 0 96809.9
0.471158 0.136175 0 96820.6
0.469643 0.132322 0.00313633 96819.8
0.471158 0.136175 0.0119524 96820.6
0.469643 0.132322 0.0114637 96819.8
0.471158 0.136175 0.0146 96820.6
0.471507 0.137017 0.0138771 96820.6
0.471936 0.137332 0.0146 96820.6
0.471507 0.137017 0.000722899 96820.6
0.471936 0.137332 0.00161133 96820.6
0.471936 0.137332 0 96820.6
0.442947 0.138845 0 96809.8
0.442947 0.138845 0.00346084 96809.8
0.442354 0.137869 0.00122789 96809.7
0.442354 0.137869 0.0133721 96809.7
0.442947 0.138845 0.0146 96809.8
0.445211 0.141665 0.0073 96810.6
0.447947 0.143713 0.0146 96809.1
0.447947 0.143713 0.0103504 96809.1
0.447947 0.143713 0 96809.1
0.473456 0.141634 0.0073 96822.1
0.475137 0.143713 0.0146 96821.2
0.475137 0.143713 0.00823694 96821.2
0.475137 0.143713 0 96821.2
0.472044 0.138134 0.00183493 96821.1
0.472487 0.138535 0 96820.8
0.472487 0.138535 0.0146 96820.8
0.472044 0.138134 0.0127651 96821.1
0.45 0.14596 0 96809
0.45 0.14596 0.00514093 96809
0.449215 0.144424 0.00162505 96809.1
0.449215 0.144424 0.0129749 96809.1
0.45 0.14596 0.0146 96809
0.45158 0.148665 0.0113296 96808.8
0.45158 0.148665 0.00327043 96808.8
0.453538 0.150094 0.0146 96808.7
0.453538 0.150094 0.00732409 96808.7
0.453538 0.150094 0 96808.7
0.478105 0.149999 0.000217344 96821.2
0.476598 0.145172 0.00333769 96822.2
0.478105 0.149999 0.0143827 96821.2
0.476598 0.145172 0.0112623 96822.2
0.478085 0.150094 0.0146 96821.1
0.478085 0.150094 0.0143407 96821.1
0.478085 0.150094 0 96821.1
0.478017 0.14992 0 96821.2
0.478017 0.14992 0.0146 96821.2
0.457052 0.155208 0 96808.5
0.457052 0.155208 0.0117008 96808.5
0.455479 0.151518 0.00325773 96808.7
0.455479 0.151518 0.0113423 96808.7
0.457052 0.155208 0.0146 96808.5
0.457462 0.156105 0.013752 96808.4
0.457462 0.156105 0.000848028 96808.4
0.457974 0.156475 0.0146 96808.8
0.457974 0.156475 0.00190719 96808.8
0.457974 0.156475 0 96808.8