# U  POINT_DATA 1369
# x y z  U_x U_y U_z
0.00634783 0.0592941 0 0.0265035 -0.202066 0
0.00535536 0.0597632 0.0123173 0.0234726 -0.204526 0
0.00535536 0.0597632 0.00228268 0.0234726 -0.204526 0
0.00634783 0.0592941 0.0112439 0.0265035 -0.202066 0
0.00634783 0.0592941 0.0146 0.0265035 -0.202066 0
0.000987881 0.0597679 0.0123279 0.00505537 -0.0617423 0
0.000987881 0.0597679 0.00227213 0.00505537 -0.0617423 0
0 0.0593039 0.0146 0 0 0
0 0.0593039 0.0112663 0 0 0
0 0.0593039 0 0 0 0
0.00489083 0.0592963 0 0.0206195 -0.15974 0
0.00489083 0.0592963 0.0146 0.0206195 -0.15974 0
0.0126957 0.0592625 0 0.0477528 -0.202096 0
0.0116796 0.0597395 0.0122631 0.0441601 -0.204703 0
0.0116796 0.0597395 0.00233689 0.0441601 -0.204703 0
0.0126957 0.0592625 0.0111715 0.0477528 -0.202096 0
0.0126957 0.0592625 0.0146 0.0477528 -0.202096 0
0.00734837 0.0597551 0.0122987 0.0296772 -0.204919 0
0.00734837 0.0597551 0.00230126 0.0296772 -0.204919 0
0.011211 0.0592685 0 0.0427682 -0.201773 0
0.011211 0.0592685 0.0146 0.0427682 -0.201773 0
0.0190435 0.059219 0 0.0697206 -0.20153 0
0.0179913 0.0597033 0.0121801 0.0662296 -0.204229 0
0.0179913 0.0597033 0.00241994 0.0662296 -0.204229 0
0.0190435 0.059219 0.011072 0.0697206 -0.20153 0
0.0190435 0.059219 0.0146 0.0697206 -0.20153 0
0.0137262 0.059725 0.0122298 0.0514774 -0.204659 0
0.0137262 0.059725 0.00237024 0.0514774 -0.204659 0
0.0175173 0.0592268 0 0.064426 -0.201546 0
0.0175173 0.0592268 0.0146 0.064426 -0.201546 0
0.0253913 0.0591732 0 0.0908384 -0.200678 0
0.0243018 0.0596657 0.0120942 0.0872253 -0.203454 0
0.0243018 0.0596657 0.00250575 0.0872253 -0.203454 0
0.0253913 0.0591732 0.0109672 0.0908384 -0.200678 0
0.0253913 0.0591732 0.0146 0.0908384 -0.200678 0
0.0201104 0.0596884 0.0121461 0.0732883 -0.204012 0
0.0201104 0.0596884 0.00245386 0.0732883 -0.204012 0
0.0238202 0.0591816 0 0.0856032 -0.200831 0
0.0238202 0.0591816 0.0146 0.0856032 -0.200831 0
0.0317391 0.0591206 0 0.111944 -0.199666 0
0.0306068 0.0596227 0.0119957 0.108154 -0.202544 0
0.0306068 0.0596227 0.00260434 0.108154 -0.202544 0
0.0317391 0.0591206 0.0108468 0.111944 -0.199666 0
0.0317391 0.0591206 0.0146 0.111944 -0.199666 0
0.026498 0.0596484 0.0120546 0.0944865 -0.203166 0
0.026498 0.0596484 0.00254538 0.0944865 -0.203166 0
0.0301173 0.0591306 0 0.10656 -0.199892 0
0.0301173 0.0591306 0.0146 0.10656 -0.199892 0
0.038087 0.0590592 0 0.133115 -0.198439 0
0.0369037 0.0595715 0.0118786 0.129123 -0.201444 0
0.0369037 0.0595715 0.00272145 0.129123 -0.201444 0
0.038087 0.0590592 0.0107064 0.133115 -0.198439 0
0.038087 0.0590592 0.0146 0.133115 -0.198439 0
0.0328929 0.0596011 0.0119463 0.115728 -0.202174 0
0.0328929 0.0596011 0.00265366 0.115728 -0.202174 0
0.0364063 0.0590714 0 0.127533 -0.198734 0
0.0364063 0.0590714 0.0146 0.127533 -0.198734 0
0.0444348 0.0589892 0 0.154322 -0.196978 0
0.043192 0.0595117 0.0117417 0.1501 -0.200127 0
0.043192 0.0595117 0.00285831 0.1501 -0.200127 0
0.0444348 0.0589892 0.0105463 0.154322 -0.196978 0
0.0444348 0.0589892 0.0146 0.154322 -0.196978 0
0.0392967 0.0595448 0.0118175 0.137059 -0.200974 0
0.0392967 0.0595448 0.00278246 0.137059 -0.200974 0
0.0426869 0.0590039 0 0.148518 -0.197347 0
0.0426869 0.0590039 0.0146 0.148518 -0.197347 0
0.0507826 0.0589112 0 0.175545 -0.195276 0
0.0494717 0.0594432 0.011585 0.171061 -0.198587 0
0.0494717 0.0594432 0.003015 0.171061 -0.198587 0
0.0507826 0.0589112 0.0103677 0.175545 -0.195276 0
0.0507826 0.0589112 0.0146 0.175545 -0.195276 0
0.0457097 0.0594793 0.0116677 0.158448 -0.199547 0
0.0457097 0.0594793 0.00293234 0.158448 -0.199547 0
0.0489598 0.0589285 0 0.169498 -0.195724 0
0.0489598 0.0589285 0.0146 0.169498 -0.195724 0
0.0571304 0.0588258 0 0.196774 -0.193318 0
0.0557427 0.0593659 0.0114082 0.191994 -0.196809 0
0.0557427 0.0593659 0.00319176 0.191994 -0.196809 0
0.0571304 0.0588258 0.0101724 0.196774 -0.193318 0
0.0571304 0.0588258 0.0146 0.196774 -0.193318 0
0.0521321 0.0594044 0.0114962 0.179874 -0.197876 0
0.0521321 0.0594044 0.00310376 0.179874 -0.197876 0
0.0552254 0.0588459 0 0.190465 -0.193856 0
0.0552254 0.0588459 0.0146 0.190465 -0.193856 0
0.0634783 0.0587341 0 0.217985 -0.191084 0
0.0620051 0.0592801 0.0112118 0.212876 -0.194776 0
0.0620051 0.0592801 0.00338816 0.212876 -0.194776 0
0.0634783 0.0587341 0.00996266 0.217985 -0.191084 0
0.0634783 0.0587341 0.0146 0.217985 -0.191084 0
0.0585638 0.05932 0.0113033 0.201322 -0.195946 0
0.0585638 0.05932 0.00329673 0.201322 -0.195946 0
0.0614849 0.0587571 0 0.211404 -0.191727 0
0.0614849 0.0587571 0.0146 0.211404 -0.191727 0
0.0698261 0.0586374 0 0.239125 -0.188534 0
0.0682594 0.059186 0.0109966 0.233659 -0.192454 0
0.0682594 0.059186 0.00360341 0.233659 -0.192454 0
0.0698261 0.0586374 0.00974129 0.239125 -0.188534 0
0.0698261 0.0586374 0.0146 0.239125 -0.188534 0
0.0650046 0.0592265 0.0110893 0.22276 -0.193731 0
0.0650046 0.0592265 0.00351068 0.22276 -0.193731 0
0.0677393 0.0586632 0 0.232265 -0.189299 0
0.0677393 0.0586632 0.0146 0.232265 -0.189299 0
0.0761739 0.0585365 0 0.26001 -0.1856 0
0.0729801 0.0591044 0.00728471 0.249167 -0.190489 0
0.0761739 0.0585365 0.00951041 0.26001 -0.1856 0
0.0761739 0.0585365 0.0146 0.26001 -0.1856 0
0.0739899 0.0585655 0 0.252874 -0.186509 0
0.0739899 0.0585655 0.0146 0.252874 -0.186509 0
0.0825217 0.0584296 0 0.280505 -0.182251 0
0.0793287 0.0589924 0.00728536 0.269844 -0.187509 0
0.0825217 0.0584296 0.00926596 0.280505 -0.182251 0
0.0825217 0.0584296 0.0146 0.280505 -0.182251 0
0.0802382 0.0584654 0 0.273102 -0.183345 0
0.0802382 0.0584654 0.0146 0.273102 -0.183345 0
0.0888696 0.0583195 0 0.300692 -0.178277 0
0.085678 0.0588548 0.0072865 0.290226 -0.184023 0
0.0888696 0.0583195 0.00901401 0.300692 -0.178277 0
0.0888696 0.0583195 0.0146 0.300692 -0.178277 0
0.0864821 0.0583609 0 0.293021 -0.179581 0
0.0864821 0.0583609 0.0146 0.293021 -0.179581 0
0.0952174 0.0582124 0 0.321475 -0.173549 0
0.0920278 0.0587116 0.007288 0.310652 -0.179986 0
0.0952174 0.0582124 0.00876893 0.321475 -0.173549 0
0.0952174 0.0582124 0.0146 0.321475 -0.173549 0
0.092724 0.0582545 0 0.313556 -0.175077 0
0.092724 0.0582545 0.0146 0.313556 -0.175077 0
0.101565 0.0581116 0 0.343139 -0.168607 0
0.0983781 0.0585663 0.00728987 0.331355 -0.175531 0
0.101565 0.0581116 0.00853831 0.343139 -0.168607 0
0.101565 0.0581116 0.0146 0.343139 -0.168607 0
0.0989707 0.0581528 0 0.335019 -0.170399 0
0.0989707 0.0581528 0.0146 0.335019 -0.170399 0
0.107913 0.0580213 0 0.363931 -0.163364 0
0.104729 0.0584253 0.00729202 0.351813 -0.170736 0
0.107913 0.0580213 0.00833176 0.363931 -0.163364 0
0.107913 0.0580213 0.0146 0.363931 -0.163364 0
0.105226 0.0580597 0 0.355659 -0.16546 0
0.105226 0.0580597 0.0146 0.355659 -0.16546 0
0.114261 0.057946 0 0.383664 -0.157504 0
0.111079 0.0582971 0.00729423 0.371554 -0.165432 0
0.114261 0.057946 0.00815941 0.383664 -0.157504 0
0.114261 0.057946 0.0146 0.383664 -0.157504 0
0.111494 0.0579791 0 0.375302 -0.159943 0
0.111494 0.0579791 0.0146 0.375302 -0.159943 0
0.120609 0.0578902 0 0.403014 -0.150941 0
0.11743 0.0581912 0.00729629 0.390776 -0.159468 0
0.120609 0.0578902 0.00803172 0.403014 -0.150941 0
0.120609 0.0578902 0.0146 0.403014 -0.150941 0
0.117778 0.0579153 0 0.394641 -0.153762 0
0.117778 0.0579153 0.0146 0.394641 -0.153762 0
0.126957 0.0578591 0 0.421709 -0.143322 0
0.12378 0.0581178 0.00729815 0.409615 -0.152697 0
0.126957 0.0578591 0.00796054 0.421709 -0.143322 0
0.126957 0.0578591 0.0146 0.421709 -0.143322 0
0.124084 0.0578733 0 0.413423 -0.146561 0
0.124084 0.0578733 0.0146 0.413423 -0.146561 0
0.133304 0.0578618 0 0.439752 -0.134593 0
0.130131 0.0580895 0.00730016 0.428021 -0.144969 0
0.133304 0.0578618 0.00796681 0.439752 -0.134593 0
0.133304 0.0578618 0.0146 0.439752 -0.134593 0
0.130419 0.0578606 0 0.431678 -0.138273 0
0.130419 0.0578606 0.0146 0.431678 -0.138273 0
0.139652 0.0579043 0 0.456696 -0.124796 0
0.136482 0.0581274 0.00730256 0.445927 -0.136164 0
0.139652 0.0579043 0.00806392 0.456696 -0.124796 0
0.139652 0.0579043 0.0146 0.456696 -0.124796 0
0.136791 0.0578849 0 0.448977 -0.128931 0
0.136791 0.0578849 0.0146 0.448977 -0.128931 0
0.146 0.0579941 0 0.47213 -0.113643 0
0.142834 0.0582293 0.00730633 0.463089 -0.126059 0
0.146 0.0579941 0.00826951 0.47213 -0.113643 0
0.146 0.0579941 0.0146 0.47213 -0.113643 0
0.143208 0.0579543 0 0.464943 -0.118224 0
0.143208 0.0579543 0.0146 0.464943 -0.118224 0
0.152348 0.0581444 0 0.485647 -0.101087 0
0.149191 0.0584131 0.00731317 0.479062 -0.114385 0
0.152348 0.0581444 0.00861343 0.485647 -0.101087 0
0.152348 0.0581444 0.0146 0.485647 -0.101087 0
0.149682 0.0580811 0 0.479212 -0.106052 0
0.149682 0.0580811 0.0146 0.479212 -0.106052 0
0.158696 0.0583638 0 0.497344 -0.0875229 0
0.155553 0.0586779 0.00732414 0.493241 -0.101023 0
0.158696 0.0583638 0.00911539 0.497344 -0.0875229 0
0.158696 0.0583638 0.0146 0.497344 -0.0875229 0
0.156226 0.0582785 0 0.491904 -0.0927368 0
0.156226 0.0582785 0.0146 0.491904 -0.0927368 0
0.165043 0.0586518 0 0.508725 -0.0725869 0
0.161922 0.0590098 0.00734045 0.50561 -0.085938 0
0.165043 0.0586518 0.00977426 0.508725 -0.0725869 0
0.165043 0.0586518 0.0146 0.508725 -0.0725869 0
0.162855 0.0585612 0 0.504431 -0.0778037 0
0.162855 0.0585612 0.0146 0.504431 -0.0778037 0
0.171391 0.0590266 0 0.520347 -0.0554561 0
0.170069 0.059432 0.0115595 0.520351 -0.0638029 0
0.170069 0.059432 0.0030405 0.520351 -0.0638029 0
0.171391 0.0590266 0.0106319 0.520347 -0.0554561 0
0.171391 0.0590266 0.0146 0.520347 -0.0554561 0
0.166531 0.0592653 0.0111781 0.513979 -0.0739883 0
0.166531 0.0592653 0.00342192 0.513979 -0.0739883 0
0.16958 0.0589397 0 0.517246 -0.0603043 0
0.16958 0.0589397 0.0146 0.517246 -0.0603043 0
0.177739 0.0595203 0 0.531464 -0.035874 0
0.176849 0.0598657 0.0125518 0.531862 -0.0419957 0
0.176849 0.0598657 0.00204825 0.531862 -0.0419957 0
0.177739 0.0595203 0.0117616 0.531464 -0.035874 0
0.177739 0.0595203 0.0146 0.531464 -0.035874 0
0.172529 0.0596169 0.0119826 0.524363 -0.0564134 0
0.172529 0.0596169 0.00261744 0.524363 -0.0564134 0
0.176428 0.0594425 0 0.52958 -0.0397855 0
0.176428 0.0594425 0.0146 0.52958 -0.0397855 0
0.184087 0.0601523 0 0.541656 -0.0135298 0
0.183681 0.0603526 0.0136659 0.54203 -0.0165316 0
0.183681 0.0603526 0.000934139 0.54203 -0.0165316 0
0.184087 0.0601523 0.0132074 0.541656 -0.0135298 0
0.184087 0.0601523 0.0146 0.541656 -0.0135298 0
0.178491 0.0600052 0.012871 0.53403 -0.0363945 0
0.178491 0.0600052 0.00172897 0.53403 -0.0363945 0
0.183437 0.0601073 0 0.540912 -0.0156755 0
0.183437 0.0601073 0.0146 0.540912 -0.0156755 0
0.184428 0.060418 0.0138154 0.542745 -0.0136397 0
0.184428 0.060418 0.000784594 0.542745 -0.0136397 0
0.188748 0.0607609 0.0146 0.547856 0.00457627 0
0.188748 0.0607609 0.0107206 0.547856 0.00457627 0
0.188748 0.0607609 0 0.547856 0.00457627 0
0.190435 0.060986 0 0.550274 0.0114231 0
0.190435 0.060986 0.000514979 0.550274 0.0114231 0
0.190313 0.060883 0.000279337 0.549773 0.0111498 0
0.190313 0.060883 0.0143207 0.549773 0.0111498 0
0.190435 0.060986 0.0146 0.550274 0.0114231 0
0.196783 0.0619322 0 0.550366 0.0415442 0
0.196783 0.0619322 0.00268005 0.550366 0.0415442 0
0.19612 0.0614269 0.00152398 0.553443 0.037248 0
0.19612 0.0614269 0.013076 0.553443 0.037248 0
0.196783 0.0619322 0.0146 0.550366 0.0415442 0
0.19068 0.0610073 0 0.549501 0.013007 0
0.190578 0.0609045 0.0003286 0.55017 0.0122706 0
0.190578 0.0609045 0.0142714 0.55017 0.0122706 0
0.19068 0.0610073 0.0146 0.549501 0.013007 0
0.20313 0.0629364 0 0.536766 0.0753288 0
0.20313 0.0629364 0.00497766 0.536766 0.0753288 0
0.201823 0.0620753 0.00300737 0.552381 0.0642073 0
0.201823 0.0620753 0.0115926 0.552381 0.0642073 0
0.20313 0.0629364 0.0146 0.536766 0.0753288 0
0.198132 0.0621169 0 0.544474 0.0494894 0
0.197632 0.0616148 0.00195389 0.55408 0.0440731 0
0.197632 0.0616148 0.0126461 0.55408 0.0440731 0
0.198132 0.0621169 0.0146 0.544474 0.0494894 0
0.209478 0.0643074 0 0.523882 0.104213 0
0.209478 0.0643074 0.00811462 0.523882 0.104213 0
0.20616 0.0631085 0.00718949 0.548989 0.0838049 0
0.209478 0.0643074 0.0146 0.523882 0.104213 0
0.205915 0.0635598 0 0.532491 0.0867216 0
0.205915 0.0635598 0.0146 0.532491 0.0867216 0
0.215826 0.0664371 0 0.519602 0.126781 0
0.215088 0.0664004 0.0129035 0.523645 0.122913 0
0.215088 0.0664004 0.00169654 0.523645 0.122913 0
0.215826 0.0664371 0.0129874 0.519602 0.126781 0
0.215826 0.0664371 0.0146 0.519602 0.126781 0
0.211278 0.0653329 0.0073 0.528141 0.108761 0
0.214836 0.0661466 0 0.521702 0.122725 0
0.214836 0.0661466 0.0146 0.521702 0.122725 0
0.216142 0.0668245 0.013874 0.519974 0.127522 0
0.216142 0.0668245 0.000726026 0.519974 0.127522 0
0.217769 0.0671419 0.0146 0.517504 0.134309 0
0.217769 0.0671419 0.00446788 0.517504 0.134309 0
0.217769 0.0671419 0 0.517504 0.134309 0
0.222174 0.0686321 0 0.500009 0.155135 0
0.222174 0.0686321 0.00340975 0.500009 0.155135 0
0.221408 0.0679115 0.00176098 0.512804 0.148374 0
0.221408 0.0679115 0.012839 0.512804 0.148374 0
0.222174 0.0686321 0.0146 0.500009 0.155135 0
0.228522 0.0706148 0 0.470727 0.1882 0
0.228522 0.0706148 0.00794622 0.470727 0.1882 0
0.226443 0.0692316 0.0073 0.503182 0.173639 0
0.228522 0.0706148 0.0146 0.470727 0.1882 0
0.224327 0.0693062 0 0.490394 0.166033 0
0.2236 0.0685754 0.00328007 0.50938 0.159739 0
0.2236 0.0685754 0.0113199 0.50938 0.159739 0
0.224327 0.0693062 0.0146 0.490394 0.166033 0
0.23487 0.0734947 0 0.467759 0.20991 0
0.23484 0.0734934 0.0145328 0.467894 0.209834 0
0.23484 0.0734934 6.72442e-05 0.467894 0.209834 0
0.23487 0.0734947 0.0145356 0.467759 0.20991 0
0.23487 0.0734947 0.0146 0.467759 0.20991 0
0.230182 0.0718537 0.0073 0.469348 0.197363 0
0.234825 0.0734779 0 0.467912 0.20972 0
0.234825 0.0734779 0.0146 0.467912 0.20972 0
0.234881 0.0735108 0.0145726 0.467715 0.209978 0
0.234881 0.0735108 2.74255e-05 0.467715 0.209978 0
0.234924 0.0735228 0.0146 0.467622 0.210106 0
0.234924 0.0735228 0.000124712 0.467622 0.210106 0
0.234924 0.0735228 0 0.467622 0.210106 0
0.241217 0.0763689 0 0.436767 0.229278 0
0.241217 0.0763689 0.00651204 0.436767 0.229278 0
0.239759 0.0749885 0.00335367 0.457584 0.224849 0
0.239759 0.0749885 0.0112463 0.457584 0.224849 0
0.241217 0.0763689 0.0146 0.436767 0.229278 0
0.247565 0.0796345 0 0.427712 0.240684 0
0.247187 0.0795236 0.0137301 0.429139 0.24058 0
0.247187 0.0795236 0.000869867 0.429139 0.24058 0
0.247565 0.0796345 0.0139839 0.427712 0.240684 0
0.247565 0.0796345 0.0146 0.427712 0.240684 0
0.243349 0.0777612 0.0073 0.434628 0.23716 0
0.247083 0.0794192 0 0.429163 0.239668 0
0.247083 0.0794192 0.0146 0.429163 0.239668 0
0.247675 0.079793 0.0143465 0.427202 0.240928 0
0.247675 0.079793 0.000253459 0.427202 0.240928 0
0.24801 0.0799038 0.0146 0.427214 0.241131 0
0.24801 0.0799038 0.00102205 0.427214 0.241131 0
0.24801 0.0799038 0 0.427214 0.241131 0
0.253913 0.0830414 0 0.412865 0.240574 0
0.253913 0.0830414 0.00717907 0.412865 0.240574 0
0.252337 0.0814882 0.00362515 0.428155 0.243947 0
0.252337 0.0814882 0.0109748 0.428155 0.243947 0
0.253913 0.0830414 0.0146 0.412865 0.240574 0
0.255675 0.0845136 0.0073 0.412054 0.241683 0
0.260002 0.0862847 0.0146 0.41841 0.236023 0
0.260002 0.0862847 0.0140057 0.41841 0.236023 0
0.260002 0.0862847 0 0.41841 0.236023 0
0.260261 0.0864423 0 0.420336 0.235425 0
0.260261 0.0864423 0.000360464 0.420336 0.235425 0
0.260188 0.0863584 0.000168479 0.418908 0.235794 0
0.260188 0.0863584 0.0144315 0.418908 0.235794 0
0.260261 0.0864423 0.0146 0.420336 0.235425 0
0.266609 0.0896228 0 0.418696 0.221716 0
0.266609 0.0896228 0.00763769 0.418696 0.221716 0
0.264883 0.0880196 0.0073 0.428679 0.230839 0
0.266609 0.0896228 0.0146 0.418696 0.221716 0
0.260537 0.086562 0 0.418739 0.234985 0
0.26041 0.0864348 0.000343285 0.419603 0.235724 0
0.26041 0.0864348 0.0142567 0.419603 0.235724 0
0.260537 0.086562 0.0146 0.418739 0.234985 0
0.268216 0.0910497 0.0073 0.420552 0.217583 0
0.272605 0.0926657 0.0146 0.436605 0.201365 0
0.272605 0.0926657 0.0137908 0.436605 0.201365 0
0.272605 0.0926657 0 0.436605 0.201365 0
0.272957 0.092866 0 0.441415 0.199482 0
0.272957 0.092866 0.000458376 0.441415 0.199482 0
0.272861 0.0927619 0.000220175 0.437851 0.200322 0
0.272861 0.0927619 0.0143798 0.437851 0.200322 0
0.272957 0.092866 0.0146 0.441415 0.199482 0
0.279304 0.095494 0 0.460676 0.175189 0
0.279304 0.095494 0.00647136 0.460676 0.175189 0
0.277777 0.0942007 0.00351212 0.45514 0.186415 0
0.277777 0.0942007 0.0110879 0.45514 0.186415 0
0.279304 0.095494 0.0146 0.460676 0.175189 0
0.273255 0.0929661 0 0.439386 0.198738 0
0.273129 0.0928393 0.000397094 0.438924 0.199826 0
0.273129 0.0928393 0.0142029 0.438924 0.199826 0
0.273255 0.0929661 0.0146 0.439386 0.198738 0
0.285652 0.0982494 0 0.474894 0.140246 0
0.284563 0.0979519 0.0120952 0.471179 0.148493 0
0.284563 0.0979519 0.00250481 0.471179 0.148493 0
0.285652 0.0982494 0.0127757 0.474894 0.140246 0
0.285652 0.0982494 0.0146 0.474894 0.140246 0
0.28158 0.0967589 0.0073 0.465796 0.168134 0
0.284347 0.0977345 0 0.470415 0.146988 0
0.284347 0.0977345 0.0146 0.470415 0.146988 0
0.28599 0.0987071 0.013823 0.474959 0.13752 0
0.28599 0.0987071 0.000777019 0.474959 0.13752 0
0.287778 0.0990467 0.0146 0.480939 0.130942 0
0.287778 0.0990467 0.0048884 0.480939 0.130942 0
0.287778 0.0990467 0 0.480939 0.130942 0
0.292 0.100497 0 0.529508 0.113523 0
0.292 0.100497 0.00331851 0.529508 0.113523 0
0.291211 0.0998399 0.00181487 0.494315 0.116276 0
0.291211 0.0998399 0.0127851 0.494315 0.116276 0
0.292 0.100497 0.0146 0.529508 0.113523 0
0.304 0.0495139 0 0.0840057 0.0565915 0
0.303773 0.0484815 0.001104 0.0225197 0.0443643 0
0.304 0.0495139 0.00346631 0.0840057 0.0565915 0
0.303773 0.0484815 0.013496 0.0225197 0.0443643 0
0.304 0.0495139 0.0146 0.0840057 0.0565915 0
0.303617 0.047999 0 0 0 0
0.303617 0.047999 0.0127372 0 0 0
0.303617 0.047999 0.0146 0 0 0
0.304445 0.0534332 0.0124338 0.275444 0.236099 0
0.306332 0.0543799 0.0146 0.32712 0.160649 0
0.304445 0.0534332 0.00216618 0.275444 0.236099 0
0.306332 0.0543799 0.0113485 0.32712 0.160649 0
0.306332 0.0543799 0 0.32712 0.160649 0
0.307 0.0551189 0 0.356484 0.143415 0
0.306824 0.0547526 0.000852642 0.352079 0.145837 0
0.307 0.0551189 0.00169086 0.356484 0.143415 0
0.306824 0.0547526 0.0137474 0.352079 0.145837 0
0.307 0.0551189 0.0146 0.356484 0.143415 0
0.31 0.0559646 0 0.331071 0.0608936 0
0.309574 0.0552861 0.00207345 0.336214 0.0720013 0
0.31 0.0559646 0.00362577 0.331071 0.0608936 0
0.309574 0.0552861 0.0125266 0.336214 0.0720013 0
0.31 0.0559646 0.0146 0.331071 0.0608936 0
0.307232 0.0548743 0.00113114 0.361853 0.143611 0
0.307397 0.0552253 0 0.359792 0.13959 0
0.307232 0.0548743 0.0134689 0.361853 0.143611 0
0.307397 0.0552253 0.0146 0.359792 0.13959 0
0.313 0.0563301 0 0.364198 0.0281841 0
0.312325 0.0558151 0.00328385 0.392469 0.0571658 0
0.313 0.0563301 0.0044622 0.364198 0.0281841 0
0.312325 0.0558151 0.0113161 0.392469 0.0571658 0
0.313 0.0563301 0.0146 0.364198 0.0281841 0
0.310603 0.0556629 0.00293548 0.362204 0.0755728 0
0.310797 0.0560761 0 0.330716 0.054563 0
0.310603 0.0556629 0.0116645 0.362204 0.0755728 0
0.310797 0.0560761 0.0146 0.330716 0.054563 0
0.315999 0.0576943 0 0.372068 0.044791 0
0.315123 0.0562444 0.0073 0.360756 0.0681888 0
0.315999 0.0576943 0.00758346 0.372068 0.044791 0
0.315999 0.0576943 0.0146 0.372068 0.044791 0
0.313681 0.0558285 0.00331448 0.370434 0.0433275 0
0.314169 0.0568683 0 0.380063 0.0228432 0
0.313681 0.0558285 0.0112855 0.370434 0.0433275 0
0.314169 0.0568683 0.0146 0.380063 0.0228432 0
0.295 0.101381 0 0.540712 0.100625 0
0.295 0.101381 0.00534131 0.540712 0.100625 0
0.294266 0.100607 0.00356987 0.504063 0.10283 0
0.294266 0.100607 0.0110301 0.504063 0.10283 0
0.295 0.101381 0.0146 0.540712 0.100625 0
0.292785 0.100715 0 0.521333 0.11146 0
0.292555 0.100227 0.00270144 0.496448 0.111536 0
0.292555 0.100227 0.0118986 0.496448 0.111536 0
0.292785 0.100715 0.0146 0.521333 0.11146 0
0.298 0.102005 0 0.537681 0.0846321 0
0.298 0.102005 0.00676885 0.537681 0.0846321 0
0.296465 0.10136 0.00724347 0.511249 0.0922713 0
0.298 0.102005 0.0146 0.537681 0.0846321 0
0.296219 0.101639 0 0.527635 0.0935449 0
0.296219 0.101639 0.0146 0.527635 0.0935449 0
0.301 0.102727 0 0.536364 0.0636834 0
0.299501 0.102255 0.0073017 0.518863 0.0797531 0
0.301 0.102727 0.00842188 0.536364 0.0636834 0
0.301 0.102727 0.0146 0.536364 0.0636834 0
0.299576 0.102399 0 0.530866 0.0721495 0
0.299576 0.102399 0.0146 0.530866 0.0721495 0
0.304 0.104049 0 0.533506 0.0285213 0
0.303349 0.104043 0.011431 0.527649 0.0403663 0
0.303349 0.104043 0.00316905 0.527649 0.0403663 0
0.304 0.104049 0.0114461 0.533506 0.0285213 0
0.304 0.104049 0.0146 0.533506 0.0285213 0
0.301907 0.103498 0.0073 0.529387 0.0613391 0
0.303193 0.103713 0 0.531573 0.0357272 0
0.303193 0.103713 0.0146 0.531573 0.0357272 0
0.307 0.105398 0 0.533065 -0.00754575 0
0.306991 0.10541 0.0145587 0.53293 -0.0074412 0
0.306991 0.10541 4.12638e-05 0.53293 -0.0074412 0
0.307 0.105398 0.0145329 0.533065 -0.00754575 0
0.307 0.105398 0.0146 0.533065 -0.00754575 0
0.304323 0.104741 0.0130291 0.530172 0.0261322 0
0.304323 0.104741 0.00157091 0.530172 0.0261322 0
0.306983 0.105391 0 0.533018 -0.00737745 0
0.306983 0.105391 0.0146 0.533018 -0.00737745 0
0.307006 0.105414 0.0145682 0.533007 -0.00758952 0
0.307006 0.105414 3.17504e-05 0.533007 -0.00758952 0
0.307142 0.105428 0.0146 0.533524 -0.00843741 0
0.307142 0.105428 0.000690778 0.533524 -0.00843741 0
0.307142 0.105428 0 0.533524 -0.00843741 0
0.31 0.105987 0 0.569071 -0.0239234 0
0.31 0.105987 0.00127907 0.569071 -0.0239234 0
0.309861 0.105722 0.00067379 0.543543 -0.0261318 0
0.309861 0.105722 0.0139262 0.543543 -0.0261318 0
0.31 0.105987 0.0146 0.569071 -0.0239234 0
0.313 0.106259 0 0.592186 -0.035646 0
0.313 0.106259 0.00190267 0.592186 -0.035646 0
0.312785 0.105884 0.00104375 0.557033 -0.0372763 0
0.312785 0.105884 0.0135563 0.557033 -0.0372763 0
0.313 0.106259 0.0146 0.592186 -0.035646 0
0.310274 0.106012 0 0.568865 -0.0255856 0
0.310151 0.10575 0.000736763 0.544291 -0.0268397 0
0.310151 0.10575 0.0138632 0.544291 -0.0268397 0
0.310274 0.106012 0.0146 0.568865 -0.0255856 0
0.315999 0.106579 0 0.617808 -0.0578525 0
0.315999 0.106579 0.00263447 0.617808 -0.0578525 0
0.315689 0.106088 0.00150992 0.574408 -0.0562127 0
0.315689 0.106088 0.0130901 0.574408 -0.0562127 0
0.315999 0.106579 0.0146 0.617808 -0.0578525 0
0.313413 0.106307 0 0.591058 -0.0391489 0
0.313238 0.105936 0.00116232 0.558313 -0.0383502 0
0.313238 0.105936 0.0134377 0.558313 -0.0383502 0
0.313413 0.106307 0.0146 0.591058 -0.0391489 0
0.323052 0.0599101 0 0.511894 0.00967061 0
0.322291 0.0600727 0.0015747 0.539794 0.0148972 0
0.322291 0.0600727 0.0130253 0.539794 0.0148972 0
0.323052 0.0599101 0.0126533 0.511894 0.00967061 0
0.323052 0.0599101 0.0146 0.511894 0.00967061 0
0.317755 0.0591723 0.0109653 0.495027 0.0565823 0
0.317755 0.0591723 0.00363475 0.495027 0.0565823 0
0.321612 0.0594578 0 0.488202 0.00927552 0
0.321612 0.0594578 0.0146 0.488202 0.00927552 0
0.323492 0.0603625 0.0136884 0.566923 -0.00224793 0
0.327418 0.0607609 0.0146 0.586301 -0.0280568 0
0.323492 0.0603625 0.000911616 0.566923 -0.00224793 0
0.327418 0.0607609 0.00903825 0.586301 -0.0280568 0
0.327418 0.0607609 0 0.586301 -0.0280568 0
0.330105 0.0612889 0 0.603102 -0.0491965 0
0.32983 0.0610097 0.000569202 0.600274 -0.0452087 0
0.330105 0.0612889 0.00120818 0.603102 -0.0491965 0
0.32983 0.0610097 0.0140308 0.600274 -0.0452087 0
0.330105 0.0612889 0.0146 0.603102 -0.0491965 0
0.337157 0.0631588 0 0.605711 -0.088935 0
0.33582 0.061971 0.00276884 0.583411 -0.0726215 0
0.337157 0.0631588 0.00548646 0.605711 -0.088935 0
0.33582 0.061971 0.0118312 0.583411 -0.0726215 0
0.337157 0.0631588 0.0146 0.605711 -0.088935 0
0.330515 0.0611317 0.000848397 0.599257 -0.0494935 0
0.330914 0.0614928 0 0.606091 -0.0544327 0
0.330515 0.0611317 0.0137516 0.599257 -0.0494935 0
0.330914 0.0614928 0.0146 0.606091 -0.0544327 0
0.34421 0.0649731 0 0.637444 -0.136416 0
0.341686 0.0648579 0.00522592 0.659873 -0.120432 0
0.341686 0.0648579 0.00937408 0.659873 -0.120432 0
0.34421 0.0649731 0.00963774 0.637444 -0.136416 0
0.34421 0.0649731 0.0146 0.637444 -0.136416 0
0.340053 0.0645224 0.00860658 0.65161 -0.110583 0
0.340053 0.0645224 0.00599342 0.65161 -0.110583 0
0.340845 0.0640975 0 0.631735 -0.112163 0
0.340845 0.0640975 0.0146 0.631735 -0.112163 0
0.351263 0.0659881 0 0.676398 -0.178752 0
0.350342 0.0663093 0.001905 0.703141 -0.171506 0
0.350342 0.0663093 0.012695 0.703141 -0.171506 0
0.351263 0.0659881 0.0119601 0.676398 -0.178752 0
0.351263 0.0659881 0.0146 0.676398 -0.178752 0
0.345627 0.0658598 0.0116666 0.692154 -0.146019 0
0.345627 0.0658598 0.00293338 0.692154 -0.146019 0
0.349761 0.0657828 0 0.669569 -0.167142 0
0.349761 0.0657828 0.0146 0.669569 -0.167142 0
0.351955 0.0665154 0.0131667 0.708032 -0.179635 0
0.3574 0.0671419 0.0146 0.71765 -0.209972 0
0.351955 0.0665154 0.00143325 0.708032 -0.179635 0
0.3574 0.0671419 0.0127047 0.71765 -0.209972 0
0.3574 0.0671419 0 0.71765 -0.209972 0
0.358315 0.0673288 0 0.719906 -0.215494 0
0.358219 0.0672288 0.000198877 0.719025 -0.214514 0
0.358315 0.0673288 0.000427638 0.719906 -0.215494 0
0.358219 0.0672288 0.0144011 0.719025 -0.214514 0
0.358315 0.0673288 0.0146 0.719906 -0.215494 0
0.365368 0.0690028 0 0.73829 -0.258504 0
0.364211 0.0681887 0.00239517 0.730986 -0.249766 0
0.365368 0.0690028 0.00425801 0.73829 -0.258504 0
0.364211 0.0681887 0.0122048 0.730986 -0.249766 0
0.365368 0.0690028 0.0146 0.73829 -0.258504 0
0.35847 0.0672818 0.000320126 0.719666 -0.215935 0
0.358578 0.0673794 0 0.72052 -0.216816 0
0.35847 0.0672818 0.0142799 0.719666 -0.215935 0
0.358578 0.0673794 0.0146 0.72052 -0.216816 0
0.372421 0.0702686 0 0.738597 -0.300582 0
0.369827 0.0694886 0.00536942 0.741558 -0.281572 0
0.372421 0.0702686 0.00715426 0.738597 -0.300582 0
0.369827 0.0694886 0.00923058 0.741558 -0.281572 0
0.372421 0.0702686 0.0146 0.738597 -0.300582 0
0.367547 0.0691132 0.0045106 0.744075 -0.266458 0
0.367896 0.0694289 0 0.743617 -0.270099 0
0.367547 0.0691132 0.0100894 0.744075 -0.266458 0
0.367896 0.0694289 0.0146 0.743617 -0.270099 0
0.379473 0.0714176 0 0.747042 -0.333888 0
0.37702 0.0713028 0.00507963 0.769888 -0.310936 0
0.37702 0.0713028 0.00952037 0.769888 -0.310936 0
0.379473 0.0714176 0.00978319 0.747042 -0.333888 0
0.379473 0.0714176 0.0146 0.747042 -0.333888 0
0.375168 0.071037 0.00891242 0.767514 -0.302472 0
0.375168 0.071037 0.00568758 0.767514 -0.302472 0
0.376631 0.0709514 0 0.749323 -0.31759 0
0.376631 0.0709514 0.0146 0.749323 -0.31759 0
0.386526 0.0728788 0 0.77364 -0.359223 0
0.385995 0.0730427 0.00109858 0.782336 -0.35283 0
0.385995 0.0730427 0.0135014 0.782336 -0.35283 0
0.386526 0.0728788 0.0131265 0.77364 -0.359223 0
0.386526 0.0728788 0.0146 0.77364 -0.359223 0
0.380822 0.0723029 0.0118087 0.776864 -0.32881 0
0.380822 0.0723029 0.00279135 0.776864 -0.32881 0
0.385655 0.0727349 0 0.771348 -0.355494 0
0.385655 0.0727349 0.0146 0.771348 -0.355494 0
0.386887 0.0731962 0.0138527 0.78338 -0.357349 0
0.388741 0.0735228 0.0146 0.783803 -0.366737 0
0.386887 0.0731962 0.000747273 0.78338 -0.357349 0
0.388741 0.0735228 0.00458644 0.783803 -0.366737 0
0.388741 0.0735228 0 0.783803 -0.366737 0
0.393579 0.0749036 0 0.788904 -0.390699 0
0.392813 0.0742156 0.00158504 0.785821 -0.386683 0
0.393579 0.0749036 0.00315923 0.788904 -0.390699 0
0.392813 0.0742156 0.013015 0.785821 -0.386683 0
0.393579 0.0749036 0.0146 0.788904 -0.390699 0
0.400631 0.0769643 0 0.786914 -0.427256 0
0.398191 0.0757303 0.0073 0.787238 -0.411647 0
0.400631 0.0769643 0.0078742 0.786914 -0.427256 0
0.400631 0.0769643 0.0146 0.786914 -0.427256 0
0.395211 0.0749995 0.00337869 0.790921 -0.394034 0
0.395765 0.0755008 0 0.791783 -0.397993 0
0.395211 0.0749995 0.0112213 0.790921 -0.394034 0
0.395765 0.0755008 0.0146 0.791783 -0.397993 0
0.407684 0.079266 0 0.801785 -0.447164 0
0.407036 0.0793179 0.00134055 0.807518 -0.437827 0
0.407036 0.0793179 0.0132594 0.807518 -0.437827 0
0.407684 0.079266 0.0131408 0.801785 -0.447164 0
0.407684 0.079266 0.0146 0.801785 -0.447164 0
0.402499 0.0782135 0.0073 0.806425 -0.418687 0
0.406656 0.0789742 0 0.801398 -0.441427 0
0.406656 0.0789742 0.0146 0.801398 -0.441427 0
0.408013 0.0796058 0.0139183 0.807234 -0.443099 0
0.409074 0.0799038 0.0146 0.803708 -0.451788 0
0.408013 0.0796058 0.000681744 0.807234 -0.443099 0
0.409074 0.0799038 0.00287831 0.803708 -0.451788 0
0.409074 0.0799038 0 0.803708 -0.451788 0
0.414737 0.0823488 0 0.800882 -0.482964 0
0.413465 0.0810545 0.00263293 0.796366 -0.479161 0
0.414737 0.0823488 0.00559444 0.800882 -0.482964 0
0.413465 0.0810545 0.0119671 0.796366 -0.479161 0
0.414737 0.0823488 0.0146 0.800882 -0.482964 0
0.421789 0.0856234 0 0.81374 -0.494673 0
0.420872 0.0854553 0.00189792 0.81942 -0.483365 0
0.420872 0.0854553 0.0127021 0.81942 -0.483365 0
0.421789 0.0856234 0.0130868 0.81374 -0.494673 0
0.421789 0.0856234 0.0146 0.81374 -0.494673 0
0.41719 0.0840648 0.0073 0.822416 -0.468139 0
0.420391 0.0850198 0 0.812249 -0.4894 0
0.420391 0.0850198 0.0146 0.812249 -0.4894 0
0.422109 0.0859954 0.013938 0.816676 -0.490433 0
0.422865 0.0862847 0.0146 0.81619 -0.500905 0
0.422109 0.0859954 0.000661982 0.816676 -0.490433 0
0.422865 0.0862847 0.00222657 0.81619 -0.500905 0
0.422865 0.0862847 0 0.81619 -0.500905 0
0.428842 0.0897324 0 0.81957 -0.53413 0
0.427148 0.087817 0.00350591 0.814681 -0.533797 0
0.428842 0.0897324 0.0078884 0.81957 -0.53413 0
0.427148 0.087817 0.0110941 0.814681 -0.533797 0
0.428842 0.0897324 0.0146 0.81957 -0.53413 0
0.430222 0.0914173 0.0117436 0.831509 -0.503893 0
0.432881 0.0926657 0.0146 0.806373 -0.555251 0
0.430222 0.0914173 0.00285641 0.831509 -0.503893 0
0.432881 0.0926657 0.00836208 0.806373 -0.555251 0
0.432881 0.0926657 0 0.806373 -0.555251 0
0.435894 0.0949793 0 0.807478 -0.56662 0
0.434932 0.0935366 0.00199267 0.799744 -0.572162 0
0.435894 0.0949793 0.00529354 0.807478 -0.56662 0
0.434932 0.0935366 0.0126073 0.799744 -0.572162 0
0.435894 0.0949793 0.0146 0.807478 -0.56662 0
0.437798 0.0973246 0.0073 0.843074 -0.516651 0
0.440647 0.0990467 0.0146 0.791801 -0.566047 0
0.440647 0.0990467 0.00983858 0.791801 -0.566047 0